CO2 crystal - PBE                       
   5.5500013527037302     
     1.000000    0.000000    0.000000
     0.000000    1.000000    0.000000
     0.000000    0.000000    1.000000
   C    O 
     4     8
Direct
  0.000160  0.000234  0.000006
  0.499922  0.999715  0.500082
  0.000167  0.500470  0.500094
  0.500407  0.499745  0.000323
  0.878582  0.878076  0.121135
  0.121746  0.122386  0.878880
  0.621506  0.877769  0.621414
  0.378358  0.121673  0.378742
  0.121666  0.622840  0.621085
  0.878675  0.378094  0.379106
  0.622091  0.377839  0.879052
  0.378720  0.621660  0.121581

   64   64   64
  277.63      289.99      319.52      346.39      352.89      333.22      293.53      244.89      196.33      152.65    
  116.56      88.308      66.665      50.179      37.684      28.306      21.331      16.170      12.362      9.5445    
  7.4282      5.8203      4.6123      3.7189      3.0459      2.5236      2.1282      1.8438      1.6352      1.4760    
  1.3713      1.3254      1.3161      1.3261      1.3722      1.4770      1.6366      1.8455      2.1297      2.5246    
  3.0465      3.7186      4.6101      5.8156      7.4206      9.5326      12.344      16.141      21.288      28.244    
  37.598      50.062      66.509      88.101      116.29      152.33      195.99      244.62      293.47      333.57    
  353.79      347.77      320.97      290.93      290.02      315.67      353.33      382.90      388.08      365.05    
  321.42      268.85      216.40      168.94      129.49      98.419      74.510      56.242      42.363      31.915    
  24.116      18.316      14.009      10.797      8.3724      6.5254      5.1342      4.1018      3.3248      2.7256    
  2.2729      1.9453      1.7048      1.5230      1.4022      1.3443      1.3263      1.3296      1.3683      1.4617    
  1.6040      1.7879      2.0358      2.3792      2.8304      3.4073      4.1710      5.2056      6.5860      8.4066    
  10.840      14.144      18.646      24.755      32.996      44.002      58.541      77.643      102.62      134.66    
  173.75      217.62      261.98      298.95      319.22      318.28      302.28      287.30      319.74      353.52    
  391.62      416.62      415.92      388.19      341.57      286.89      232.20      182.36      140.64      107.49    
  81.770      62.000      46.911      35.503      26.942      20.536      15.739      12.131      9.3891      7.2950    
  5.7134      4.5351      3.6487      2.9697      2.4576      2.0843      1.8101      1.6058      1.4693      1.3995    
  1.3737      1.3736      1.4091      1.4948      1.6239      1.7886      2.0069      2.3049      2.6923      3.1839    
  3.8320      4.7098      5.8827      7.4331      9.5106      12.340      16.207      21.471      28.595      38.127    
  50.724      67.255      88.854      116.61      150.74      189.57      229.64      264.95      288.67      297.98    
  298.26      301.74      346.92      383.40      416.94      434.39      427.54      397.06      350.37      296.36    
  241.67      191.42      148.94      114.77      87.939      67.122      51.112      38.920      29.703      22.748    
  17.489      13.494      10.438      8.0968      6.3243      4.9987      4.0024      3.2446      2.6751      2.2586    
  1.9546      1.7331      1.5868      1.5098      1.4804      1.4812      1.5174      1.5984      1.7175      1.8677    
  2.0624      2.3214      2.6527      3.0690      3.6139      4.3494      5.3331      6.6367      8.3859      10.770    
  14.031      18.483      24.523      32.620      43.320      57.333      75.590      99.056      128.17      161.98    
  198.05      232.44      260.73      281.32      297.84      317.79      353.74      388.92      416.60      427.92    
  418.21      388.93      345.77      295.29      243.15      194.82      153.38      119.50      92.486      71.246    
  54.721      41.999      32.274      24.853      19.179      14.823      11.469      8.8927      6.9374      5.4706    
  4.3694      3.5374      2.9150      2.4599      2.1310      1.8978      1.7473      1.6689      1.6422      1.6508    
  1.6951      1.7792      1.8966      2.0411      2.2211      2.4503      2.7348      3.0860      3.5393      4.1462    
  4.9579      6.0373      7.4874      9.4621      12.164      15.857      20.879      27.626      36.544      48.193    
  63.305      82.702      106.95      135.81      167.82      200.75      232.08      260.82      288.73      319.20    
  334.31      366.16      389.18      397.80      389.31      364.77      327.81      283.04      236.06      191.89    
  153.31      121.13      94.975      74.048      57.501      44.559      34.514      26.739      20.717      16.047    
  12.428      9.6405      7.5208      5.9274      4.7325      3.8353      3.1674      2.6802      2.3321      2.0921    
  1.9428      1.8698      1.8541      1.8806      1.9450      2.0458      2.1757      2.3283      2.5064      2.7178    
  2.9667      3.2630      3.6350      4.1252      4.7796      5.6538      6.8319      8.4362      10.631      13.636    
  17.732      23.247      30.545      40.056      52.337      68.046      87.778      111.74      139.39      169.54    
  200.91      232.74      265.37      299.50      294.72      322.67      342.76      351.37      346.47      328.16    
  298.35      261.02      221.18      182.92      148.71      119.50      95.200      75.319      59.256      46.427    
  36.274      28.281      22.005      17.088      13.255      10.297      8.0428      6.3465      5.0769      4.1290    
  3.4283      2.9211      2.5650      2.3286      2.1909      2.1349      2.1428      2.1996      2.2973      2.4296    
  2.5873      2.7622      2.9522      3.1589      3.3840      3.6353      3.9349      4.3178      4.8255      5.5082    
  6.4354      7.7039      9.4451      11.837      15.109      19.531      25.397      33.036      42.857      55.361    
  71.077      90.402      113.38      139.54      168.13      198.55      230.36      262.94      246.08      270.12    
  288.15      297.49      296.19      283.62      261.29      232.35      200.54      169.12      140.26      114.91    
  93.238      75.000      59.859      47.454      37.411      29.358      22.944      17.871      13.896      10.820    
  8.4741      6.7082      5.3898      4.4123      3.6973      3.1880      2.8416      2.6256      2.5166      2.4951    
  2.5435      2.6465      2.7929      2.9726      3.1741      3.3866      3.6028      3.8189      4.0326      4.2483    
  4.4825      4.7639      5.1305      5.6286      6.3179      7.2765      8.6091      10.458      13.007      16.476    
  21.102      27.138      34.880      44.689      56.985      72.173      90.519      112.00      136.24      162.61    
  190.44      218.77      197.44      217.60      233.43      242.81      244.11      236.76      221.60      200.71    
  176.78      152.31      129.09      108.02      89.378      73.156      59.251      47.528      37.807      29.862    
  23.448      18.331      14.301      11.176      8.7912      6.9970      5.6624      4.6813      3.9743      3.4838    
  3.1666      2.9898      2.9285      2.9620      3.0722      3.2431      3.4607      3.7113      3.9798      4.2515    
  4.5137      4.7562      4.9720      5.1608      5.3338      5.5153      5.7401      6.0527      6.5071      7.1699    
  8.1260      9.4881      11.403      14.047      17.611      22.291      28.302      35.898      45.380      57.080    
  71.283      88.116      107.45      128.85      151.65      174.92      153.63      170.00      183.45      192.46    
  195.73      192.60      183.39      169.38      152.41      134.31      116.43      99.544      83.991      69.921    
  57.434      46.591      37.385      29.725      23.462      18.425      14.440      11.344      8.9810      7.2062    
  5.8933      4.9392      4.2663      3.8177      3.5509      3.4339      3.4418      3.5544      3.7533      4.0215    
  4.3420      4.6966      5.0651      5.4263      5.7605      6.0503      6.2824      6.4512      6.5633      6.6396    
  6.7137      6.8299      7.0411      7.4085      8.0044      8.9199      10.271      12.198      14.853      18.390    
  22.968      28.764      35.984      44.866      55.637      68.436      83.225      99.736      117.47      135.74    
  117.39      130.38      141.55      149.82      154.16      153.93      149.15      140.52      129.22      116.47    
  103.23      90.100      77.422      65.462      54.469      44.652      36.133      28.929      22.970      18.142    
  14.307      11.322      9.0455      7.3421      6.0932      5.2019      4.5946      4.2173      4.0296      4.0013    
  4.1092      4.3339      4.6570      5.0599      5.5223      6.0204      6.5270      7.0127      7.4487      7.8084    
  8.0703      8.2227      8.2679      8.2247      8.1276      8.0238      7.9694      8.0261      8.2606      8.7504    
  9.5885      10.885      12.758      15.330      18.721      23.054      28.470      35.130      43.192      52.763    
  63.834      76.235      89.633      103.56      88.999      99.141      108.22      115.46      120.12      121.63    
  119.85      115.13      108.13      99.585      90.104      80.122      69.972      59.983      50.494      41.804    
  34.116      27.518      22.004      17.507      13.921      11.129      9.0038      7.4254      6.2861      5.4979    
  4.9939      4.7247      4.6538      4.7539      5.0037      5.3846      5.8778      6.4622      7.1132      7.8007    
  8.4890      9.1389      9.7098      10.163      10.467      10.602      10.566      10.377      10.074      9.7108    
  9.3515      9.0642      8.9175      8.9824      9.3365      10.066      11.262      13.017      15.421      18.563    
  22.539      27.457      33.424      40.512      48.721      57.940      67.948      78.434      67.233      75.079    
  82.327      88.460      92.941      95.336      95.454      93.388      89.443      83.998      77.400      69.948    
  61.950      53.754      45.736      38.228      31.472      25.599      20.644      16.579      13.330      10.803    
  8.8905      7.4897      6.5066      5.8645      5.5051      5.3855      5.4746      5.7492      6.1908      6.7815    
  7.5014      8.3259      9.2245      10.159      11.084      11.947      12.692      13.267      13.624      13.735    
  13.593      13.218      12.657      11.975      11.252      10.568      9.9997      9.6202      9.4981      9.7020    
  10.300      11.360      12.944      15.115      17.939      21.488      25.834      31.029      37.073      43.894    
  51.343      59.211      50.644      56.680      62.405      67.481      71.543      74.269      75.457      75.059    
  73.149      69.868      65.387      59.910      53.706      47.112      40.491      34.170      28.397      23.320    
  19.003      15.445      12.601      10.398      8.7532      7.5793      6.7989      6.3481      6.1786      6.2559    
  6.5557      7.0604      7.7545      8.6208      9.6370      10.774      11.992      13.245      14.471      15.603    
  16.567      17.288      17.705      17.776      17.490      16.872      15.980      14.900      13.732      12.577    
  11.528      10.664      10.053      9.7505      9.8071      10.267      11.169      12.551      14.455      16.927    
  20.015      23.757      28.156      33.165      38.686      44.572      38.063      42.691      47.186      51.330    
  54.876      57.587      59.273      59.812      59.152      57.299      54.317      50.348      45.617      40.421    
  35.085      29.904      25.110      20.853      17.213      14.207      11.813      9.9816      8.6487      7.7477    
  7.2175      7.0087      7.0846      7.4209      8.0016      8.8146      9.8461      11.077      12.479      14.015    
  15.637      17.282      18.875      20.328      21.544      22.427      22.894      22.891      22.401      21.457    
  20.138      18.556      16.840      15.120      13.511      12.105      10.973      10.164      9.7123      9.6421    
  9.9710      10.714      11.889      13.521      15.638      18.266      21.411      25.044      29.101      33.483    
  28.613      32.153      35.670      39.018      42.028      44.520      46.325      47.295      47.325      46.358    
  44.407      41.568      38.021      34.014      29.818      25.685      21.821      18.366      15.404      12.967    
  11.050      9.6217      8.6399      8.0570      7.8302      7.9257      8.3212      9.0043      9.9675      11.202    
  12.692      14.410      16.317      18.361      20.481      22.597      24.614      26.423      27.901      28.928    
  29.401      29.251      28.461      27.076      25.201      22.984      20.595      18.198      15.936      13.918    
  12.221      10.889      9.9436      9.3915      9.2288      9.4491      10.049      11.032      12.409      14.194    
  16.390      18.984      21.933      25.172      21.580      24.280      27.022      29.701      32.195      34.363    
  36.058      37.141      37.495      37.047      35.786      33.779      31.167      28.143      24.926      21.723    
  18.707      16.005      13.696      11.822      10.390      9.3894      8.7957      8.5817      8.7237      9.2059    
  10.022      11.172      12.657      14.468      16.578      18.947      21.515      24.211      26.949      29.626    
  32.120      34.292      35.995      37.088      37.456      37.025      35.782      33.793      31.195      28.183    
  24.973      21.774      18.758      16.054      13.742      11.864      10.429      9.4250      8.8292      8.6142    
  8.7561      9.2393      10.058      11.211      12.701      14.516      16.632      19.006      16.372      18.421    
  20.545      22.664      24.683      26.490      27.964      28.984      29.447      29.283      28.479      27.080    
  25.192      22.964      20.567      18.165      15.900      13.882      12.185      10.854      9.9103      9.3588    
  9.1960      9.4155      10.013      10.994      12.367      14.146      16.337      18.924      21.867      25.100    
  28.537      32.074      35.590      38.939      41.953      44.453      46.270      47.256      47.304      46.358    
  44.429      41.609      38.078      34.082      29.892      25.760      21.893      18.433      15.464      13.019    
  11.095      9.6616      8.6755      8.0897      7.8611      7.9561      8.3523      9.0373      10.004      11.242    
  12.737      14.460      12.525      14.066      15.692      17.340      18.936      20.389      21.603      22.481    
  22.941      22.927      22.426      21.471      20.141      18.549      16.825      15.100      13.487      12.079    
  10.945      10.135      9.6821      9.6105      9.9371      10.677      11.849      13.475      15.587      18.207    
  21.344      24.970      29.021      33.397      37.973      42.601      47.099      51.249      54.807      57.534    
  59.240      59.802      59.165      57.337      54.379      50.430      45.715      40.528      35.194      30.010    
  25.208      20.941      17.288      14.271      11.867      10.027      8.6876      7.7816      7.2481      7.0373    
  7.1127      7.4496      8.0322      8.8480      9.8833      11.118      9.6756      10.816      12.039      13.295    
  14.523      15.656      16.618      17.336      17.748      17.812      17.517      16.889      15.989      14.901    
  13.726      12.565      11.511      10.644      10.030      9.7245      9.7779      10.234      11.131      12.509    
  14.407      16.871      19.951      23.683      28.072      33.073      38.587      44.469      50.540      56.580    
  62.313      67.405      71.490      74.245      75.464      75.097      73.216      69.963      65.506      60.048    
  53.857      47.268      40.643      34.312      28.525      23.431      19.097      15.523      12.665      10.451    
  8.7961      7.6151      6.8298      6.3758      6.2046      6.2814      6.5820      7.0886      7.7856      8.6555    
  7.5332      8.3611      9.2630      10.201      11.128      11.991      12.736      13.308      13.661      13.767    
  13.618      13.237      12.668      11.979      11.250      10.560      9.9871      9.6033      9.4769      9.6763    
  10.270      11.323      12.901      15.065      17.880      21.418      25.752      30.935      36.968      43.779    
  51.222      59.087      67.113      74.970      82.237      88.401      92.921      95.363      95.526      93.501    
  89.590      84.173      77.595      70.158      62.166      53.968      45.938      38.411      31.633      25.735    
  20.758      16.672      13.404      10.862      8.9376      7.5277      6.5381      5.8916      5.5295      5.4086    
  5.4976      5.7733      6.2168      6.8102      5.9037      6.4908      7.1444      7.8342      8.5243      9.1750    
  9.7456      10.198      10.499      10.630      10.589      10.394      10.085      9.7161      9.3510      9.0583    
  8.9065      8.9664      9.3150      10.038      11.227      12.974      15.369      18.500      22.465      27.369    
  33.320      40.393      48.588      57.796      67.798      78.285      88.862      99.027      108.14      115.44    
  120.16      121.73      120.02      115.36      108.39      99.863      90.395      80.418      70.264      60.262    
  50.750      42.031      34.310      27.681      22.137      17.613      14.005      11.195      9.0550      7.4656    
  6.3183      5.5246      5.0170      4.7457      4.6740      4.7744      5.0253      5.4081      4.6779      5.0828    
  5.5471      6.0470      6.5550      7.0414      7.4773      7.8359      8.0958      8.2452      8.2867      8.2391    
  8.1371      8.0282      7.9687      8.0201      8.2492      8.7331      9.5645      10.853      12.717      15.278    
  18.656      22.976      28.376      35.017      43.059      52.610      63.663      76.052      89.448      103.38    
  117.24      130.27      141.51      149.86      154.29      154.16      149.46      140.89      129.62      116.88    
  103.64      90.494      77.797      65.808      54.779      44.921      36.360      29.115      23.120      18.261    
  14.400      11.394      9.1003      7.3842      6.1261      5.2283      4.6167      4.2366      4.0475      4.0189    
  4.1273      4.3531      3.7700      4.0395      4.3614      4.7174      5.0868      5.4486      5.7827      6.0717    
  6.3022      6.4687      6.5780      6.6507      6.7207      6.8323      7.0387      7.4008      7.9908      8.8995    
  10.243      12.159      14.802      18.325      22.887      28.664      35.863      44.720      55.465      68.238    
  83.005      99.504      117.24      135.53      153.46      169.91      183.46      192.60      196.00      193.00    
  183.89      169.94      153.00      134.88      116.97      100.05      84.452      70.335      57.795      46.898    
  37.639      29.931      23.626      18.553      14.540      11.420      9.0384      7.2497      5.9265      4.9651    
  4.2873      3.8355      3.5668      3.4489      3.4569      3.5700      3.0854      3.2571      3.4756      3.7271    
  3.9963      4.2683      4.5304      4.7723      4.9868      5.1738      5.3444      5.5228      5.7440      6.0523    
  6.5020      7.1593      8.1088      9.4628      11.368      13.999      17.547      22.209      28.200      35.770    
  45.224      56.891      71.060      87.861      107.17      128.57      151.37      174.68      197.26      217.54    
  233.51      243.08      244.57      237.40      222.36      201.53      177.59      153.07      129.78      108.64    
  89.925      73.632      59.657      47.865      38.082      30.082      23.621      18.466      14.405      11.254    
  8.8499      7.0409      5.6955      4.7066      3.9943      3.5002      3.1807      3.0027      2.9409      2.9746    
  2.5537      2.6571      2.8041      2.9844      3.1863      3.3988      3.6149      3.8303      4.0430      4.2572    
  4.4892      4.7679      5.1310      5.6250      6.3093      7.2619      8.5869      10.426      12.962      16.416    
  21.022      27.035      34.750      44.526      56.783      71.929      90.233      111.68      135.90      162.27    
  190.12      218.50      245.91      270.11      288.34      297.93      296.88      284.53      262.34      233.44    
  201.59      170.09      141.11      115.65      93.865      75.530      60.299      47.812      37.698      29.584    
  23.121      18.008      14.000      10.899      8.5328      6.7517      5.4222      4.4367      3.7160      3.2030    
  2.8540      2.6365      2.5267      2.5051      2.1504      2.2075      2.3054      2.4380      2.5958      2.7707    
  2.9603      3.1664      3.3905      3.6404      3.9379      4.3181      4.8224      5.5008      6.4226      7.6842    
  9.4164      11.796      15.053      19.455      25.296      32.906      42.690      55.150      70.816      90.090    
  113.02      139.15      167.74      198.17      230.01      262.66      294.57      322.71      343.08      352.00    
  347.41      329.35      299.70      262.40      222.48      184.08      149.71      120.33      95.893      75.888    
  59.717      46.795      36.565      28.508      22.181      17.223      13.358      10.374      8.1000      6.3887    
  5.1080      4.1522      3.4459      2.9346      2.5759      2.3378      2.1991      2.1427      1.8597      1.8862    
  1.9505      2.0513      2.1812      2.3335      2.5112      2.7218      2.9697      3.2645      3.6344      4.1218    
  4.7726      5.6422      6.8142      8.4102      10.594      13.584      17.661      23.151      30.418      39.891    
  52.124      67.776      87.444      111.35      138.96      169.10      200.48      232.35      265.03      299.23    
  334.17      366.25      389.60      398.61      390.49      366.22      329.42      284.66      237.58      193.22    
  154.42      122.04      95.709      74.636      57.968      44.926      34.800      26.960      20.887      16.177    
  12.526      9.7143      7.5754      5.9674      4.7619      3.8570      3.1836      2.6924      2.3416      2.0998    
  1.9493      1.8756      1.6460      1.6544      1.6985      1.7823      1.8994      2.0436      2.2230      2.4513    
  2.7347      3.0843      3.5352      4.1390      4.9468      6.0209      7.4638      9.4286      12.117      15.792    
  20.790      27.505      36.385      47.984      63.034      82.357      106.53      135.32      167.30      200.26    
  231.66      260.48      288.46      318.98      353.63      389.03      417.06      428.83      419.55      390.58    
  347.56      297.08      244.80      196.24      154.55      120.44      93.230      71.831      55.178      42.353    
  32.547      25.062      19.339      14.945      11.561      8.9616      6.9883      5.5078      4.3966      3.5574    
  2.9298      2.4708      2.1393      1.9042      1.7524      1.6731      1.4828      1.4833      1.5190      1.5995    
  1.7181      1.8678      2.0616      2.3196      2.6496      3.0641      3.6063      4.3382      5.3173      6.6148    
  8.3554      10.727      13.972      18.401      24.411      32.470      43.122      57.072      75.248      98.620    
  127.64      161.39      197.44      231.90      260.33      281.08      297.71      317.68      346.85      383.48    
  417.35      435.29      428.92      398.79      352.24      298.19      243.34      192.85      150.11      115.69    
  88.661      67.682      51.544      39.252      29.956      22.941      17.636      13.605      10.522      8.1598    
  6.3708      5.0327      4.0274      3.2630      2.6885      2.2683      1.9618      1.7385      1.5908      1.5127    
  1.3750      1.3745      1.4093      1.4943      1.6228      1.7867      2.0039      2.3005      2.6863      3.1758    
  3.8207      4.6942      5.8618      7.4049      9.4719      12.287      16.133      21.371      28.458      37.943    
  50.478      66.930      88.428      116.06      150.09      188.84      228.91      264.34      288.28      297.84    
  298.28      301.77      319.71      353.54      391.92      417.39      417.21      389.86      343.40      288.67    
  233.82      183.73      141.74      108.35      82.441      62.517      47.308      35.805      27.171      20.710    
  15.871      12.231      9.4645      7.3515      5.7552      4.5657      3.6713      2.9864      2.4697      2.0930    
  1.8164      1.6103      1.4724      1.4014      1.3269      1.3296      1.3674      1.4598      1.6013      1.7842    
  2.0307      2.3724      2.8216      3.3959      4.1557      5.1853      6.5592      8.3710      10.792      14.078    
  18.555      24.631      32.828      43.777      58.241      77.244      102.10      133.99      172.94      216.72    
  261.07      298.19      318.75      318.15      302.38      287.42      290.03      315.63      353.48      383.49    
  389.19      366.55      323.09      270.48      217.87      170.18      130.49      99.199      75.112      56.705    
  42.717      32.184      24.319      18.470      14.125      10.885      8.4390      6.5755      5.1714      4.1293    
  3.3452      2.7408      2.2840      1.9533      1.7105      1.5270      1.4047      1.3457      1.3162      1.3254    
  1.3704      1.4741      1.6325      1.8402      2.1225      2.5154      3.0349      3.7038      4.5906      5.7899    
  7.3870      9.4884      12.285      16.061      21.178      28.095      37.395      49.790      66.146      87.618    
  115.66      151.51      195.00      243.51      292.33      332.57      353.12      347.50      321.01      291.04    
  277.63      289.91      319.57      346.81      353.79      334.50      294.99      246.32      197.62      153.74    
  117.43      88.988      67.190      50.583      37.993      28.540      21.508      16.304      12.464      9.6209    
  7.4862      5.8643      4.6453      3.7435      3.0644      2.5376      2.1385      1.8513      1.6406      1.4797    
  1.3735      1.3264      1.3255      1.3431      1.3998      1.5192      1.6997      1.9387      2.2636      2.7130    
  3.3084      4.0801      5.1045      6.4850      8.3186      10.725      13.911      18.180      23.927      31.655    
  42.007      55.761      73.865      97.557      128.35      167.49      214.69      267.00      319.67      363.82    
  387.83      383.79      355.02      317.37      290.99      287.27      301.62      317.67      319.18      299.60    
  263.11      218.93      175.03      135.79      103.54      78.359      59.096      44.430      33.322      24.999    
  18.827      14.278      10.938      8.4787      6.6393      5.2450      4.1991      3.4270      2.8443      2.3893    
  2.0424      1.7919      1.6066      1.4634      1.3688      1.3291      1.3716      1.3968      1.4653      1.6000    
  1.8027      2.0747      2.4448      2.9528      3.6269      4.5064      5.6750      7.2435      9.3210      12.041    
  15.618      20.370      26.713      35.188      46.481      61.417      80.986      106.44      139.25      180.58    
  230.06      284.53      339.18      386.18      414.78      416.69      392.76      355.11      321.06      302.37    
  298.28      297.83      288.76      265.46      230.48      190.55      151.72      117.47      89.563      67.818    
  51.164      38.470      28.858      21.669      16.353      12.448      9.5894      7.4906      5.9249      4.7406    
  3.8537      3.1987      2.7025      2.3121      2.0114      1.7910      1.6252      1.4953      1.4085      1.3720    
  1.4771      1.5058      1.5814      1.7257      1.9450      2.2463      2.6590      3.2235      3.9750      4.9628    
  6.2764      8.0330      10.353      13.383      17.341      22.548      29.430      38.547      50.602      66.432    
  87.013      113.53      147.30      189.32      239.11      293.48      347.35      394.24      425.37      433.27    
  416.92      384.13      347.84      318.44      298.13      281.43      260.93      232.85      198.66      162.70    
  128.88      99.694      76.121      57.762      43.660      32.886      24.728      18.638      14.146      10.854    
  8.4472      6.6810      5.3651      4.3723      3.6296      3.0793      2.6594      2.3258      2.0647      1.8685    
  1.7174      1.5976      1.5158      1.4787      1.6385      1.6643      1.7411      1.8893      2.1197      2.4452    
  2.8957      3.5120      4.3362      5.4270      6.8794      8.8156      11.367      14.689      19.001      24.616    
  31.954      41.564      54.131      70.450      91.423      118.09      151.53      192.45      240.25      291.98    
  342.25      385.46      415.18      425.68      415.32      388.49      353.79      319.38      288.87      260.92    
  232.25      201.05      168.25      136.30      107.45      83.154      63.690      48.508      36.799      27.828    
  21.035      15.974      12.251      9.5255      7.5330      6.0696      4.9805      4.1616      3.5491      3.0918    
  2.7380      2.4519      2.2214      2.0404      1.8953      1.7776      1.6929      1.6479      1.8502      1.8647    
  1.9359      2.0826      2.3193      2.6633      3.1451      3.8058      4.6937      5.8759      7.4522      9.5491    
  12.307      15.888      20.508      26.461      34.143      44.061      56.833      73.158      93.798      119.58    
  151.30      189.34      232.94      279.45      323.98      360.94      385.76      394.83      386.99      364.75    
  333.51      299.07      265.15      232.64      200.94      169.70      139.65      112.06      88.107      68.352    
  52.604      40.281      30.729      23.395      17.846      13.721      10.694      8.4810      6.8632      5.6750    