  12  12   0   0
  0.1424617E+02  0.5550001E-09  0.5550001E-09  0.5550001E-09  0.5000000E-15
   1.0000000000000000E-004
  CAR 
 CO2 crystal - PBE                       
      3.65031166    -18.28565627  301     -0.74919176      1.00000000
    -18.286  0.0000E+00  0.0000E+00
    -18.213  0.0000E+00  0.0000E+00
    -18.139  0.0000E+00  0.0000E+00
    -18.066  0.0000E+00  0.0000E+00
    -17.993  0.0000E+00  0.0000E+00
    -17.920  0.0000E+00  0.0000E+00
    -17.847  0.0000E+00  0.0000E+00
    -17.774  0.0000E+00  0.0000E+00
    -17.701  0.0000E+00  0.0000E+00
    -17.628  0.0000E+00  0.0000E+00
    -17.554  0.0000E+00  0.0000E+00
    -17.481  0.0000E+00  0.0000E+00
    -17.408  0.3766E-15  0.2753E-16
    -17.335  0.2124E-13  0.1581E-14
    -17.262  0.1003E-11  0.7491E-13
    -17.189  0.3656E-10  0.2748E-11
    -17.116  0.1036E-08  0.7851E-10
    -17.043  0.2287E-07  0.1751E-08
    -16.969  0.3936E-06  0.3053E-07
    -16.896  0.5295E-05  0.4177E-06
    -16.823  0.5578E-04  0.4497E-05
    -16.750  0.4617E-03  0.3825E-04
    -16.677  0.3014E-02  0.2586E-03
    -16.604  0.1560E-01  0.1399E-02
    -16.531  0.6459E-01  0.6122E-02
    -16.458  0.2163E+00  0.2194E-01
    -16.385  0.5961E+00  0.6553E-01
    -16.311  0.1383E+01  0.1666E+00
    -16.238  0.2780E+01  0.3699E+00
    -16.165  0.4988E+01  0.7346E+00
    -16.092  0.8144E+01  0.1330E+01
    -16.019  0.1208E+02  0.2213E+01
    -15.946  0.1590E+02  0.3376E+01
    -15.873  0.1803E+02  0.4694E+01
    -15.800  0.1711E+02  0.5946E+01
    -15.726  0.1330E+02  0.6918E+01
    -15.653  0.8330E+01  0.7527E+01
    -15.580  0.4162E+01  0.7831E+01
    -15.507  0.1645E+01  0.7951E+01
    -15.434  0.5116E+00  0.7989E+01
    -15.361  0.1246E+00  0.7998E+01
    -15.288  0.2370E-01  0.8000E+01
    -15.215  0.3510E-02  0.8000E+01
    -15.142  0.4040E-03  0.8000E+01
    -15.068  0.3607E-04  0.8000E+01
    -14.995  0.2495E-05  0.8000E+01
    -14.922  0.1336E-06  0.8000E+01
    -14.849  0.5529E-08  0.8000E+01
    -14.776  0.1768E-09  0.8000E+01
    -14.703  0.4361E-11  0.8000E+01
    -14.630  0.8369E-13  0.8000E+01
    -14.557  0.6316E-15  0.8000E+01
    -14.483  0.0000E+00  0.8000E+01
    -14.410  0.0000E+00  0.8000E+01
    -14.337  0.0000E+00  0.8000E+01
    -14.264  0.0000E+00  0.8000E+01
    -14.191  0.0000E+00  0.8000E+01
    -14.118  0.0000E+00  0.8000E+01
    -14.045  0.0000E+00  0.8000E+01
    -13.972  0.0000E+00  0.8000E+01
    -13.898  0.5220E-13  0.8000E+01
    -13.825  0.2984E-11  0.8000E+01
    -13.752  0.1332E-09  0.8000E+01
    -13.679  0.4574E-08  0.8000E+01
    -13.606  0.1209E-06  0.8000E+01
    -13.533  0.2458E-05  0.8000E+01
    -13.460  0.3849E-04  0.8000E+01
    -13.387  0.4643E-03  0.8000E+01
    -13.314  0.4317E-02  0.8000E+01
    -13.240  0.3096E-01  0.8003E+01
    -13.167  0.1713E+00  0.8015E+01
    -13.094  0.7315E+00  0.8069E+01
    -13.021  0.2413E+01  0.8245E+01
    -12.948  0.6154E+01  0.8695E+01
    -12.875  0.1214E+02  0.9583E+01
    -12.802  0.1854E+02  0.1094E+02
    -12.729  0.2193E+02  0.1254E+02
    -12.655  0.2012E+02  0.1401E+02
    -12.582  0.1433E+02  0.1506E+02
    -12.509  0.7925E+01  0.1564E+02
    -12.436  0.3410E+01  0.1589E+02
    -12.363  0.1142E+01  0.1597E+02
    -12.290  0.2980E+00  0.1599E+02
    -12.217  0.6067E-01  0.1600E+02
    -12.144  0.9638E-02  0.1600E+02
    -12.070  0.1195E-02  0.1600E+02
    -11.997  0.1158E-03  0.1600E+02
    -11.924  0.8759E-05  0.1600E+02
    -11.851  0.5171E-06  0.1600E+02
    -11.778  0.2381E-07  0.1600E+02
    -11.705  0.8542E-09  0.1600E+02
    -11.632  0.2385E-10  0.1600E+02
    -11.559  0.5181E-12  0.1600E+02
    -11.486  0.8187E-14  0.1600E+02
    -11.412  0.0000E+00  0.1600E+02
    -11.339  0.0000E+00  0.1600E+02
    -11.266  0.0000E+00  0.1600E+02
    -11.193  0.0000E+00  0.1600E+02
    -11.120  0.0000E+00  0.1600E+02
    -11.047  0.0000E+00  0.1600E+02
    -10.974  0.0000E+00  0.1600E+02
    -10.901  0.0000E+00  0.1600E+02
    -10.827  0.0000E+00  0.1600E+02
    -10.754  0.0000E+00  0.1600E+02
    -10.681  0.0000E+00  0.1600E+02
    -10.608  0.0000E+00  0.1600E+02
    -10.535  0.0000E+00  0.1600E+02
    -10.462  0.0000E+00  0.1600E+02
    -10.389  0.0000E+00  0.1600E+02
    -10.316  0.0000E+00  0.1600E+02
    -10.242  0.0000E+00  0.1600E+02
    -10.169  0.0000E+00  0.1600E+02
    -10.096  0.0000E+00  0.1600E+02
    -10.023  0.0000E+00  0.1600E+02
     -9.950  0.0000E+00  0.1600E+02
     -9.877  0.0000E+00  0.1600E+02
     -9.804  0.0000E+00  0.1600E+02
     -9.731  0.0000E+00  0.1600E+02
     -9.658  0.0000E+00  0.1600E+02
     -9.584  0.0000E+00  0.1600E+02
     -9.511  0.0000E+00  0.1600E+02
     -9.438  0.0000E+00  0.1600E+02
     -9.365  0.0000E+00  0.1600E+02
     -9.292  0.0000E+00  0.1600E+02
     -9.219  0.0000E+00  0.1600E+02
     -9.146  0.0000E+00  0.1600E+02
     -9.073  0.0000E+00  0.1600E+02
     -8.999  0.0000E+00  0.1600E+02
     -8.926  0.0000E+00  0.1600E+02
     -8.853  0.0000E+00  0.1600E+02
     -8.780  0.0000E+00  0.1600E+02
     -8.707  0.0000E+00  0.1600E+02
     -8.634  0.0000E+00  0.1600E+02
     -8.561  0.0000E+00  0.1600E+02
     -8.488  0.0000E+00  0.1600E+02
     -8.414  0.0000E+00  0.1600E+02
     -8.341  0.0000E+00  0.1600E+02
     -8.268  0.0000E+00  0.1600E+02
     -8.195  0.0000E+00  0.1600E+02
     -8.122  0.0000E+00  0.1600E+02
     -8.049  0.0000E+00  0.1600E+02
     -7.976  0.0000E+00  0.1600E+02
     -7.903  0.0000E+00  0.1600E+02
     -7.830  0.0000E+00  0.1600E+02
     -7.756  0.0000E+00  0.1600E+02
     -7.683  0.0000E+00  0.1600E+02
     -7.610  0.0000E+00  0.1600E+02
     -7.537  0.0000E+00  0.1600E+02
     -7.464  0.0000E+00  0.1600E+02
     -7.391  0.0000E+00  0.1600E+02
     -7.318  0.0000E+00  0.1600E+02
     -7.245  0.0000E+00  0.1600E+02
     -7.171  0.0000E+00  0.1600E+02
     -7.098  0.0000E+00  0.1600E+02
     -7.025  0.0000E+00  0.1600E+02
     -6.952  0.0000E+00  0.1600E+02
     -6.879  0.0000E+00  0.1600E+02
     -6.806  0.0000E+00  0.1600E+02
     -6.733  0.0000E+00  0.1600E+02
     -6.660  0.0000E+00  0.1600E+02
     -6.586  0.9718E-16  0.1600E+02
     -6.513  0.1363E-13  0.1600E+02
     -6.440  0.7369E-12  0.1600E+02
     -6.367  0.3075E-10  0.1600E+02
     -6.294  0.9949E-09  0.1600E+02
     -6.221  0.2498E-07  0.1600E+02
     -6.148  0.4875E-06  0.1600E+02
     -6.075  0.7402E-05  0.1600E+02
     -6.002  0.8757E-04  0.1600E+02
     -5.928  0.8087E-03  0.1600E+02
     -5.855  0.5844E-02  0.1600E+02
     -5.782  0.3316E-01  0.1600E+02
     -5.709  0.1483E+00  0.1601E+02
     -5.636  0.5264E+00  0.1605E+02
     -5.563  0.1493E+01  0.1616E+02
     -5.490  0.3416E+01  0.1641E+02
     -5.417  0.6384E+01  0.1688E+02
     -5.343  0.9874E+01  0.1760E+02
     -5.270  0.1284E+02  0.1854E+02
     -5.197  0.1430E+02  0.1958E+02
     -5.124  0.1391E+02  0.2060E+02
     -5.051  0.1208E+02  0.2149E+02
     -4.978  0.9632E+01  0.2219E+02
     -4.905  0.7350E+01  0.2273E+02
     -4.832  0.5741E+01  0.2315E+02
     -4.758  0.4972E+01  0.2351E+02
     -4.685  0.4994E+01  0.2388E+02
     -4.612  0.5675E+01  0.2429E+02
     -4.539  0.6761E+01  0.2478E+02
     -4.466  0.7828E+01  0.2536E+02
     -4.393  0.8472E+01  0.2598E+02
     -4.320  0.8631E+01  0.2661E+02
     -4.247  0.8634E+01  0.2724E+02
     -4.174  0.8883E+01  0.2789E+02
     -4.100  0.9532E+01  0.2859E+02
     -4.027  0.1030E+02  0.2934E+02
     -3.954  0.1050E+02  0.3011E+02
     -3.881  0.9481E+01  0.3080E+02
     -3.808  0.7292E+01  0.3133E+02
     -3.735  0.4706E+01  0.3168E+02
     -3.662  0.2559E+01  0.3186E+02
     -3.589  0.1194E+01  0.3195E+02
     -3.515  0.4934E+00  0.3199E+02
     -3.442  0.1965E+00  0.3200E+02
     -3.369  0.9181E-01  0.3201E+02
     -3.296  0.6166E-01  0.3201E+02
     -3.223  0.6510E-01  0.3202E+02
     -3.150  0.1061E+00  0.3203E+02
     -3.077  0.1992E+00  0.3204E+02
     -3.004  0.3470E+00  0.3207E+02
     -2.930  0.5380E+00  0.3210E+02
     -2.857  0.7522E+00  0.3216E+02
     -2.784  0.9624E+00  0.3223E+02
     -2.711  0.1166E+01  0.3232E+02
     -2.638  0.1467E+01  0.3242E+02
     -2.565  0.2091E+01  0.3258E+02
     -2.492  0.3210E+01  0.3281E+02
     -2.419  0.4698E+01  0.3315E+02
     -2.346  0.6206E+01  0.3361E+02
     -2.272  0.7599E+01  0.3416E+02
     -2.199  0.9137E+01  0.3483E+02
     -2.126  0.1102E+02  0.3564E+02
     -2.053  0.1290E+02  0.3658E+02
     -1.980  0.1399E+02  0.3760E+02
     -1.907  0.1379E+02  0.3861E+02
     -1.834  0.1257E+02  0.3953E+02
     -1.761  0.1134E+02  0.4036E+02
     -1.687  0.1117E+02  0.4118E+02
     -1.614  0.1238E+02  0.4208E+02
     -1.541  0.1433E+02  0.4313E+02
     -1.468  0.1573E+02  0.4428E+02
     -1.395  0.1542E+02  0.4541E+02
     -1.322  0.1315E+02  0.4637E+02
     -1.249  0.9695E+01  0.4708E+02
     -1.176  0.6206E+01  0.4753E+02
     -1.102  0.3479E+01  0.4779E+02
     -1.029  0.1719E+01  0.4791E+02
     -0.956  0.7544E+00  0.4797E+02
     -0.883  0.2981E+00  0.4799E+02
     -0.810  0.1119E+00  0.4800E+02
     -0.737  0.5207E-01  0.4800E+02
     -0.664  0.5510E-01  0.4800E+02
     -0.591  0.1021E+00  0.4801E+02
     -0.518  0.1961E+00  0.4803E+02
     -0.444  0.3586E+00  0.4805E+02
     -0.371  0.6255E+00  0.4810E+02
     -0.298  0.1021E+01  0.4817E+02
     -0.225  0.1526E+01  0.4828E+02
     -0.152  0.2076E+01  0.4844E+02
     -0.079  0.2581E+01  0.4863E+02
     -0.006  0.2988E+01  0.4884E+02
      0.067  0.3365E+01  0.4909E+02
      0.141  0.3927E+01  0.4938E+02
      0.214  0.4865E+01  0.4973E+02
      0.287  0.6103E+01  0.5018E+02
      0.360  0.7281E+01  0.5071E+02
      0.433  0.8056E+01  0.5130E+02
      0.506  0.8355E+01  0.5191E+02
      0.579  0.8319E+01  0.5252E+02
      0.652  0.8216E+01  0.5312E+02
      0.726  0.8598E+01  0.5375E+02
      0.799  0.1027E+02  0.5450E+02
      0.872  0.1350E+02  0.5549E+02
      0.945  0.1715E+02  0.5674E+02
      1.018  0.1918E+02  0.5814E+02
      1.091  0.1841E+02  0.5949E+02
      1.164  0.1553E+02  0.6062E+02
      1.237  0.1220E+02  0.6152E+02
      1.310  0.9538E+01  0.6221E+02
      1.384  0.7619E+01  0.6277E+02
      1.457  0.6004E+01  0.6321E+02
      1.530  0.4430E+01  0.6353E+02
      1.603  0.2963E+01  0.6375E+02
      1.676  0.1775E+01  0.6388E+02
      1.749  0.9455E+00  0.6395E+02
      1.822  0.4414E+00  0.6398E+02
      1.895  0.1764E+00  0.6399E+02
      1.969  0.5872E-01  0.6400E+02
      2.042  0.1591E-01  0.6400E+02
      2.115  0.3447E-02  0.6400E+02
      2.188  0.5899E-03  0.6400E+02
      2.261  0.7904E-04  0.6400E+02
      2.334  0.8247E-05  0.6400E+02
      2.407  0.6675E-06  0.6400E+02
      2.480  0.4180E-07  0.6400E+02
      2.554  0.2022E-08  0.6400E+02
      2.627  0.7543E-10  0.6400E+02
      2.700  0.2168E-11  0.6400E+02
      2.773  0.4798E-13  0.6400E+02
      2.846  0.7774E-15  0.6400E+02
      2.919  0.0000E+00  0.6400E+02
      2.992  0.0000E+00  0.6400E+02
      3.065  0.0000E+00  0.6400E+02
      3.138  0.0000E+00  0.6400E+02
      3.212  0.0000E+00  0.6400E+02
      3.285  0.0000E+00  0.6400E+02
      3.358  0.0000E+00  0.6400E+02
      3.431  0.0000E+00  0.6400E+02
      3.504  0.0000E+00  0.6400E+02
      3.577  0.0000E+00  0.6400E+02
      3.650  0.0000E+00  0.6400E+02
