   12   12    1    1
  0.1424617E+02  0.5550001E-09  0.5550001E-09  0.5550001E-09  0.5000000E-15
   1.0000000000000000E-004
  CAR 
 CO2 crystal - PBE                       
     48     63     32

  0.1262379E-14  0.1262379E-14  0.1262379E-14  0.8000000E-02
      1        -16.285656   1.000000
      2        -15.796153   1.000000
      3        -15.794658   1.000000
      4        -15.793041   1.000000
      5        -12.785749   1.000000
      6        -12.784457   1.000000
      7        -12.781016   1.000000
      8        -12.659891   1.000000
      9         -5.253353   1.000000
     10         -5.249948   1.000000
     11         -5.246920   1.000000
     12         -4.444149   1.000000
     13         -4.440030   1.000000
     14         -3.853011   1.000000
     15         -3.849784   1.000000
     16         -3.844773   1.000000
     17         -3.389656   1.000000
     18         -2.218098   1.000000
     19         -2.215114   1.000000
     20         -2.210362   1.000000
     21         -1.366866   0.999994
     22         -1.360961   0.999992
     23         -1.358243   0.999992
     24         -0.975165   0.944965
     25         -0.477218   0.027231
     26         -0.475986   0.026688
     27         -0.475267   0.026376
     28          1.124984   0.000000
     29          1.129220   0.000000
     30          1.143137   0.000000
     31          1.648638   0.000000
     32          1.650312   0.000000

  0.2000000E+00  0.1262379E-14  0.1262379E-14  0.1600000E-01
      1        -16.242549   1.000000
      2        -15.845760   1.000000
      3        -15.794858   1.000000
      4        -15.792080   1.000000
      5        -12.780421   1.000000
      6        -12.777240   1.000000
      7        -12.774130   1.000000
      8        -12.672611   1.000000
      9         -5.235445   1.000000
     10         -5.206701   1.000000
     11         -5.201343   1.000000
     12         -4.572924   1.000000
     13         -4.423932   1.000000
     14         -4.180075   1.000000
     15         -3.997217   1.000000
     16         -3.954538   1.000000
     17         -2.963877   1.000000
     18         -2.129532   1.000000
     19         -2.116918   1.000000
     20         -2.078562   1.000000
     21         -1.523421   1.000000
     22         -1.418729   0.999999
     23         -1.411338   0.999999
     24         -1.136964   0.996946
     25         -0.256624   0.000248
     26         -0.236866   0.000146
     27         -0.232303   0.000129
     28          1.096058   0.000000
     29          1.098709   0.000000
     30          1.208950   0.000000
     31          1.456522   0.000000
     32          1.628089   0.000000

  0.1262379E-14  0.2000000E+00  0.1262379E-14  0.1600000E-01
      1        -16.242518   1.000000
      2        -15.845392   1.000000
      3        -15.794322   1.000000
      4        -15.793039   1.000000
      5        -12.781194   1.000000
      6        -12.779570   1.000000
      7        -12.771259   1.000000
      8        -12.672335   1.000000
      9         -5.233382   1.000000
     10         -5.212194   1.000000
     11         -5.198992   1.000000
     12         -4.571261   1.000000
     13         -4.426788   1.000000
     14         -4.179287   1.000000
     15         -3.989225   1.000000
     16         -3.959271   1.000000
     17         -2.966453   1.000000
     18         -2.123430   1.000000
     19         -2.118048   1.000000
     20         -2.082683   1.000000
     21         -1.529755   1.000000
     22         -1.413448   0.999999
     23         -1.410406   0.999999
     24         -1.135478   0.996847
     25         -0.254636   0.000235
     26         -0.238854   0.000154
     27         -0.232733   0.000130
     28          1.082339   0.000000
     29          1.107317   0.000000
     30          1.212770   0.000000
     31          1.455285   0.000000
     32          1.629402   0.000000

  0.1262379E-14  0.1262379E-14  0.2000000E+00  0.1600000E-01
      1        -16.242589   1.000000
      2        -15.846304   1.000000
      3        -15.793460   1.000000
      4        -15.792861   1.000000
      5        -12.781642   1.000000
      6        -12.778889   1.000000
      7        -12.771550   1.000000
      8        -12.672346   1.000000
      9         -5.238311   1.000000
     10         -5.209212   1.000000
     11         -5.195982   1.000000
     12         -4.573579   1.000000
     13         -4.423936   1.000000
     14         -4.176060   1.000000
     15         -3.993277   1.000000
     16         -3.961705   1.000000
     17         -2.962976   1.000000
     18         -2.129036   1.000000
     19         -2.112360   1.000000
     20         -2.085263   1.000000
     21         -1.524422   1.000000
     22         -1.417975   0.999999
     23         -1.411182   0.999999
     24         -1.136268   0.996900
     25         -0.257312   0.000252
     26         -0.237241   0.000147
     27         -0.233259   0.000132
     28          1.086879   0.000000
     29          1.093428   0.000000
     30          1.224764   0.000000
     31          1.456628   0.000000
     32          1.629083   0.000000

  0.4000000E+00  0.1262379E-14  0.1262379E-14  0.1600000E-01
      1        -16.126251   1.000000
      2        -15.975008   1.000000
      3        -15.793050   1.000000
      4        -15.790398   1.000000
      5        -12.773791   1.000000
      6        -12.770465   1.000000
      7        -12.744038   1.000000
      8        -12.705133   1.000000
      9         -5.177159   1.000000
     10         -5.127978   1.000000
     11         -5.073236   1.000000
     12         -4.840184   1.000000
     13         -4.418544   1.000000
     14         -4.343650   1.000000
     15         -4.281947   1.000000
     16         -4.171353   1.000000
     17         -2.388258   1.000000
     18         -1.925186   1.000000
     19         -1.920016   1.000000
     20         -1.900758   1.000000
     21         -1.798572   1.000000
     22         -1.564026   1.000000
     23         -1.533128   1.000000
     24         -1.430798   0.999999
     25          0.182311   0.000000
     26          0.198890   0.000000
     27          0.305847   0.000000
     28          0.943697   0.000000
     29          0.945730   0.000000
     30          0.949478   0.000000
     31          1.390731   0.000000
     32          1.547783   0.000000

  0.1262379E-14  0.4000000E+00  0.1262379E-14  0.1600000E-01
      1        -16.126126   1.000000
      2        -15.974764   1.000000
      3        -15.792546   1.000000
      4        -15.791328   1.000000
      5        -12.774209   1.000000
      6        -12.772948   1.000000
      7        -12.742030   1.000000
      8        -12.704128   1.000000
      9         -5.177324   1.000000
     10         -5.128510   1.000000
     11         -5.076431   1.000000
     12         -4.840702   1.000000
     13         -4.412458   1.000000
     14         -4.347248   1.000000
     15         -4.273912   1.000000
     16         -4.175582   1.000000
     17         -2.392044   1.000000
     18         -1.921208   1.000000
     19         -1.919542   1.000000
     20         -1.903537   1.000000
     21         -1.802881   1.000000
     22         -1.564986   1.000000
     23         -1.529013   1.000000
     24         -1.427467   0.999999
     25          0.187078   0.000000
     26          0.199369   0.000000
     27          0.303483   0.000000
     28          0.933738   0.000000
     29          0.943567   0.000000
     30          0.951186   0.000000
     31          1.393675   0.000000
     32          1.549762   0.000000

  0.1262379E-14  0.1262379E-14  0.4000000E+00  0.1600000E-01
      1        -16.126404   1.000000
      2        -15.975361   1.000000
      3        -15.791675   1.000000
      4        -15.791188   1.000000
      5        -12.774381   1.000000
      6        -12.772681   1.000000
      7        -12.742226   1.000000
      8        -12.704203   1.000000
      9         -5.178585   1.000000
     10         -5.126166   1.000000
     11         -5.074678   1.000000
     12         -4.840827   1.000000
     13         -4.413298   1.000000
     14         -4.345977   1.000000
     15         -4.276543   1.000000
     16         -4.176267   1.000000
     17         -2.388126   1.000000
     18         -1.926656   1.000000
     19         -1.917539   1.000000
     20         -1.903059   1.000000
     21         -1.803319   1.000000
     22         -1.570238   1.000000
     23         -1.525650   1.000000
     24         -1.427864   0.999999
     25          0.178256   0.000000
     26          0.193370   0.000000
     27          0.305889   0.000000
     28          0.940683   0.000000
     29          0.944629   0.000000
     30          0.949251   0.000000
     31          1.401140   0.000000
     32          1.552561   0.000000

  0.2000000E+00  0.2000000E+00  0.1262379E-14  0.1600000E-01
      1        -16.202492   1.000000
      2        -15.839747   1.000000
      3        -15.839033   1.000000
      4        -15.797477   1.000000
      5        -12.779461   1.000000
      6        -12.772278   1.000000
      7        -12.766393   1.000000
      8        -12.684106   1.000000
      9         -5.304200   1.000000
     10         -5.217340   1.000000
     11         -5.034782   1.000000
     12         -4.650611   1.000000
     13         -4.466243   1.000000
     14         -4.446917   1.000000
     15         -3.994807   1.000000
     16         -3.928267   1.000000
     17         -2.775150   1.000000
     18         -2.085286   1.000000
     19         -2.007319   1.000000
     20         -1.998815   1.000000
     21         -1.585958   1.000000
     22         -1.557928   1.000000
     23         -1.412146   0.999999
     24         -1.224543   0.999612
     25         -0.084900   0.000001
     26         -0.061367   0.000001
     27         -0.042238   0.000000
     28          1.075862   0.000000
     29          1.147631   0.000000
     30          1.155523   0.000000
     31          1.389685   0.000000
     32          1.509549   0.000000

  0.1262379E-14  0.2000000E+00  0.2000000E+00  0.1600000E-01
      1        -16.202531   1.000000
      2        -15.841030   1.000000
      3        -15.838092   1.000000
      4        -15.797077   1.000000
      5        -12.779369   1.000000
      6        -12.770845   1.000000
      7        -12.767995   1.000000
      8        -12.684040   1.000000
      9         -5.302598   1.000000
     10         -5.221150   1.000000
     11         -5.033052   1.000000
     12         -4.651706   1.000000
     13         -4.466832   1.000000
     14         -4.443296   1.000000
     15         -3.997897   1.000000
     16         -3.925575   1.000000
     17         -2.775246   1.000000
     18         -2.080626   1.000000
     19         -2.012025   1.000000
     20         -2.001143   1.000000
     21         -1.590996   1.000000
     22         -1.552595   1.000000
     23         -1.411873   0.999999
     24         -1.223876   0.999605
     25         -0.084582   0.000001
     26         -0.064152   0.000001
     27         -0.041875   0.000000
     28          1.063701   0.000000
     29          1.151837   0.000000
     30          1.165335   0.000000
     31          1.390890   0.000000
     32          1.508670   0.000000

  0.2000000E+00  0.1262379E-14  0.2000000E+00  0.1600000E-01
      1        -16.202570   1.000000
      2        -15.840288   1.000000
      3        -15.839123   1.000000
      4        -15.796733   1.000000
      5        -12.778520   1.000000
      6        -12.770104   1.000000
      7        -12.769421   1.000000
      8        -12.684223   1.000000
      9         -5.303996   1.000000
     10         -5.218670   1.000000
     11         -5.033252   1.000000
     12         -4.654349   1.000000
     13         -4.463395   1.000000
     14         -4.444204   1.000000
     15         -4.000838   1.000000
     16         -3.924307   1.000000
     17         -2.773832   1.000000
     18         -2.079904   1.000000
     19         -2.013655   1.000000
     20         -2.001466   1.000000
     21         -1.587296   1.000000
     22         -1.550937   1.000000
     23         -1.416611   0.999999
     24         -1.224436   0.999611
     25         -0.085111   0.000001
     26         -0.062484   0.000001
     27         -0.043290   0.000000
     28          1.066357   0.000000
     29          1.153893   0.000000
     30          1.161721   0.000000
     31          1.392258   0.000000
     32          1.507418   0.000000

 -0.2000000E+00  0.2000000E+00  0.1262379E-14  0.1600000E-01
      1        -16.202510   1.000000
      2        -15.839646   1.000000
      3        -15.839119   1.000000
      4        -15.797469   1.000000
      5        -12.777076   1.000000
      6        -12.771934   1.000000
      7        -12.768939   1.000000
      8        -12.684319   1.000000
      9         -5.304853   1.000000
     10         -5.216519   1.000000
     11         -5.034572   1.000000
     12         -4.651920   1.000000
     13         -4.465552   1.000000
     14         -4.445664   1.000000
     15         -3.994912   1.000000
     16         -3.928360   1.000000
     17         -2.776060   1.000000
     18         -2.083771   1.000000
     19         -2.007690   1.000000
     20         -2.002213   1.000000
     21         -1.587807   1.000000
     22         -1.556857   1.000000
     23         -1.409752   0.999999
     24         -1.223951   0.999606
     25         -0.084643   0.000001
     26         -0.060743   0.000001
     27         -0.043410   0.000000
     28          1.076307   0.000000
     29          1.147514   0.000000
     30          1.156525   0.000000
     31          1.389744   0.000000
     32          1.508954   0.000000

 -0.2000000E+00  0.1262379E-14  0.2000000E+00  0.1600000E-01
      1        -16.202552   1.000000
      2        -15.840481   1.000000
      3        -15.838970   1.000000
      4        -15.796716   1.000000
      5        -12.778904   1.000000
      6        -12.771014   1.000000
      7        -12.768141   1.000000
      8        -12.684192   1.000000
      9         -5.303689   1.000000
     10         -5.218996   1.000000
     11         -5.033452   1.000000
     12         -4.653843   1.000000
     13         -4.463642   1.000000
     14         -4.444596   1.000000
     15         -4.000899   1.000000
     16         -3.924381   1.000000
     17         -2.773249   1.000000
     18         -2.079841   1.000000
     19         -2.013507   1.000000
     20         -2.000406   1.000000
     21         -1.586879   1.000000
     22         -1.551276   1.000000
     23         -1.417430   0.999999
     24         -1.225081   0.999617
     25         -0.085360   0.000001
     26         -0.062669   0.000001
     27         -0.042733   0.000000
     28          1.066370   0.000000
     29          1.153537   0.000000
     30          1.161672   0.000000
     31          1.392102   0.000000
     32          1.507704   0.000000

  0.1262379E-14 -0.2000000E+00  0.2000000E+00  0.1600000E-01
      1        -16.202538   1.000000
      2        -15.840966   1.000000
      3        -15.838126   1.000000
      4        -15.797099   1.000000
      5        -12.780200   1.000000
      6        -12.770843   1.000000
      7        -12.767267   1.000000
      8        -12.683938   1.000000
      9         -5.302531   1.000000
     10         -5.221321   1.000000
     11         -5.032952   1.000000
     12         -4.651400   1.000000
     13         -4.467074   1.000000
     14         -4.443615   1.000000
     15         -3.997777   1.000000
     16         -3.925432   1.000000
     17         -2.775297   1.000000
     18         -2.081536   1.000000
     19         -2.011875   1.000000
     20         -2.000311   1.000000
     21         -1.590356   1.000000
     22         -1.552874   1.000000
     23         -1.412474   0.999999
     24         -1.223569   0.999602
     25         -0.084299   0.000001
     26         -0.064480   0.000001
     27         -0.041752   0.000000
     28          1.063422   0.000000
     29          1.151898   0.000000
     30          1.165156   0.000000
     31          1.391011   0.000000
     32          1.508731   0.000000

  0.4000000E+00  0.2000000E+00  0.1262379E-14  0.1600000E-01
      1        -16.094993   1.000000
      2        -15.956588   1.000000
      3        -15.824311   1.000000
      4        -15.808161   1.000000
      5        -12.772993   1.000000
      6        -12.764465   1.000000
      7        -12.747585   1.000000
      8        -12.713618   1.000000
      9         -5.257346   1.000000
     10         -5.129731   1.000000
     11         -5.076974   1.000000
     12         -4.925127   1.000000
     13         -4.468002   1.000000
     14         -4.325676   1.000000
     15         -4.170234   1.000000
     16         -4.128565   1.000000
     17         -2.338707   1.000000
     18         -1.946649   1.000000
     19         -1.916066   1.000000
     20         -1.867255   1.000000
     21         -1.758613   1.000000
     22         -1.598596   1.000000
     23         -1.539912   1.000000
     24         -1.442981   1.000000
     25          0.264076   0.000000
     26          0.322259   0.000000
     27          0.404815   0.000000
     28          0.956958   0.000000
     29          0.965311   0.000000
     30          0.968336   0.000000
     31          1.293452   0.000000
     32          1.420264   0.000000

  0.1262379E-14  0.4000000E+00  0.2000000E+00  0.1600000E-01
      1        -16.094926   1.000000
      2        -15.956364   1.000000
      3        -15.824642   1.000000
      4        -15.808166   1.000000
      5        -12.772271   1.000000
      6        -12.767561   1.000000
      7        -12.745668   1.000000
      8        -12.713047   1.000000
      9         -5.257608   1.000000
     10         -5.131919   1.000000
     11         -5.078040   1.000000
     12         -4.927173   1.000000
     13         -4.460914   1.000000
     14         -4.327596   1.000000
     15         -4.165020   1.000000
     16         -4.131156   1.000000
     17         -2.340795   1.000000
     18         -1.943214   1.000000
     19         -1.919066   1.000000
     20         -1.868236   1.000000
     21         -1.763146   1.000000
     22         -1.594366   1.000000
     23         -1.540251   1.000000
     24         -1.440898   0.999999
     25          0.267556   0.000000
     26          0.322341   0.000000
     27          0.402453   0.000000
     28          0.947357   0.000000
     29          0.963738   0.000000
     30          0.971077   0.000000
     31          1.296178   0.000000
     32          1.421995   0.000000

  0.2000000E+00  0.1262379E-14  0.4000000E+00  0.1600000E-01
      1        -16.095165   1.000000
      2        -15.956841   1.000000
      3        -15.824169   1.000000
      4        -15.807840   1.000000
      5        -12.772192   1.000000
      6        -12.767524   1.000000
      7        -12.745787   1.000000
      8        -12.713115   1.000000
      9         -5.258150   1.000000
     10         -5.130649   1.000000
     11         -5.077204   1.000000
     12         -4.927974   1.000000
     13         -4.462507   1.000000
     14         -4.325951   1.000000
     15         -4.165752   1.000000
     16         -4.131942   1.000000
     17         -2.337374   1.000000
     18         -1.941875   1.000000
     19         -1.915771   1.000000
     20         -1.870500   1.000000
     21         -1.765586   1.000000
     22         -1.592353   1.000000
     23         -1.545377   1.000000
     24         -1.441670   1.000000
     25          0.261386   0.000000
     26          0.315880   0.000000
     27          0.404616   0.000000
     28          0.951462   0.000000
     29          0.964436   0.000000
     30          0.971167   0.000000
     31          1.302334   0.000000
     32          1.424053   0.000000

 -0.2000000E+00  0.4000000E+00  0.1262379E-14  0.1600000E-01
      1        -16.094947   1.000000
      2        -15.956358   1.000000
      3        -15.824444   1.000000
      4        -15.808334   1.000000
      5        -12.771669   1.000000
      6        -12.769139   1.000000
      7        -12.744939   1.000000
      8        -12.712848   1.000000
      9         -5.293115   1.000000
     10         -5.241100   1.000000
     11         -4.786161   1.000000
     12         -4.784978   1.000000
     13         -4.717411   1.000000
     14         -4.559429   1.000000
     15         -4.068687   1.000000
     16         -4.015098   1.000000
     17         -2.346123   1.000000
     18         -1.949567   1.000000
     19         -1.901257   1.000000
     20         -1.848061   1.000000
     21         -1.780992   1.000000
     22         -1.724359   1.000000
     23         -1.460323   1.000000
     24         -1.416839   0.999999
     25          0.276098   0.000000
     26          0.298594   0.000000
     27          0.422930   0.000000
     28          0.955871   0.000000
     29          0.964894   0.000000
     30          1.004577   0.000000
     31          1.280072   0.000000
     32          1.393610   0.000000

 -0.4000000E+00  0.1262379E-14  0.2000000E+00  0.1600000E-01
      1        -16.095039   1.000000
      2        -15.956573   1.000000
      3        -15.824610   1.000000
      4        -15.807843   1.000000
      5        -12.771714   1.000000
      6        -12.767299   1.000000
      7        -12.746055   1.000000
      8        -12.713484   1.000000
      9         -5.292005   1.000000
     10         -5.242614   1.000000
     11         -4.786549   1.000000
     12         -4.784104   1.000000
     13         -4.720271   1.000000
     14         -4.558182   1.000000
     15         -4.070471   1.000000
     16         -4.013121   1.000000
     17         -2.341582   1.000000
     18         -1.944501   1.000000
     19         -1.898791   1.000000
     20         -1.851332   1.000000
     21         -1.781785   1.000000
     22         -1.722540   1.000000
     23         -1.466663   1.000000
     24         -1.420206   0.999999
     25          0.275123   0.000000
     26          0.293693   0.000000
     27          0.425161   0.000000
     28          0.960063   0.000000
     29          0.962078   0.000000
     30          1.010314   0.000000
     31          1.277460   0.000000
     32          1.392987   0.000000

  0.1262379E-14  0.2000000E+00  0.4000000E+00  0.1600000E-01
      1        -16.095147   1.000000
      2        -15.956885   1.000000
      3        -15.824046   1.000000
      4        -15.807931   1.000000
      5        -12.772453   1.000000
      6        -12.768491   1.000000
      7        -12.744917   1.000000
      8        -12.712779   1.000000
      9         -5.291873   1.000000
     10         -5.243230   1.000000
     11         -4.785030   1.000000
     12         -4.784338   1.000000
     13         -4.717591   1.000000
     14         -4.560707   1.000000
     15         -4.068495   1.000000
     16         -4.014163   1.000000
     17         -2.342912   1.000000
     18         -1.944536   1.000000
     19         -1.902892   1.000000
     20         -1.851277   1.000000
     21         -1.782227   1.000000
     22         -1.726628   1.000000
     23         -1.461538   1.000000
     24         -1.417211   0.999999
     25          0.272161   0.000000
     26          0.290256   0.000000
     27          0.424632   0.000000
     28          0.959292   0.000000
     29          0.962725   0.000000
     30          1.007347   0.000000
     31          1.285237   0.000000
     32          1.395887   0.000000

  0.1262379E-14 -0.4000000E+00  0.2000000E+00  0.1600000E-01
      1        -16.094938   1.000000
      2        -15.956349   1.000000
      3        -15.824607   1.000000
      4        -15.808202   1.000000
      5        -12.773310   1.000000
      6        -12.766524   1.000000
      7        -12.745833   1.000000
      8        -12.712880   1.000000
      9         -5.257491   1.000000
     10         -5.132174   1.000000
     11         -5.078050   1.000000
     12         -4.926950   1.000000
     13         -4.461227   1.000000
     14         -4.327657   1.000000
     15         -4.164797   1.000000
     16         -4.131059   1.000000
     17         -2.341112   1.000000
     18         -1.943963   1.000000
     19         -1.918514   1.000000
     20         -1.867477   1.000000
     21         -1.762803   1.000000
     22         -1.594694   1.000000
     23         -1.540813   1.000000
     24         -1.440594   0.999999
     25          0.267439   0.000000
     26          0.322908   0.000000
     27          0.402083   0.000000
     28          0.947918   0.000000
     29          0.963861   0.000000
     30          0.970294   0.000000
     31          1.296339   0.000000
     32          1.421788   0.000000

 -0.2000000E+00  0.1262379E-14  0.4000000E+00  0.1600000E-01
      1        -16.095133   1.000000
      2        -15.956878   1.000000
      3        -15.824196   1.000000
      4        -15.807812   1.000000
      5        -12.772764   1.000000
      6        -12.766959   1.000000
      7        -12.745820   1.000000
      8        -12.713066   1.000000
      9         -5.257814   1.000000
     10         -5.131147   1.000000
     11         -5.077505   1.000000
     12         -4.927438   1.000000
     13         -4.462779   1.000000
     14         -4.326120   1.000000
     15         -4.165675   1.000000
     16         -4.131876   1.000000
     17         -2.336921   1.000000
     18         -1.941805   1.000000
     19         -1.915785   1.000000
     20         -1.869709   1.000000
     21         -1.765114   1.000000
     22         -1.592626   1.000000
     23         -1.546083   1.000000
     24         -1.442206   1.000000
     25          0.260986   0.000000
     26          0.316612   0.000000
     27          0.404329   0.000000
     28          0.951810   0.000000
     29          0.964767   0.000000
     30          0.970258   0.000000
     31          1.302400   0.000000
     32          1.424032   0.000000

  0.4000000E+00  0.1262379E-14  0.2000000E+00  0.1600000E-01
      1        -16.095071   1.000000
      2        -15.956537   1.000000
      3        -15.824576   1.000000
      4        -15.807878   1.000000
      5        -12.771691   1.000000
      6        -12.767106   1.000000
      7        -12.746277   1.000000
      8        -12.713488   1.000000
      9         -5.292449   1.000000
     10         -5.242041   1.000000
     11         -4.787352   1.000000
     12         -4.784168   1.000000
     13         -4.719574   1.000000
     14         -4.557880   1.000000
     15         -4.070513   1.000000
     16         -4.013103   1.000000
     17         -2.342183   1.000000
     18         -1.944799   1.000000
     19         -1.898547   1.000000
     20         -1.851587   1.000000
     21         -1.782335   1.000000
     22         -1.722515   1.000000
     23         -1.466120   1.000000
     24         -1.419554   0.999999
     25          0.274834   0.000000
     26          0.294087   0.000000
     27          0.424780   0.000000
     28          0.960070   0.000000
     29          0.962512   0.000000
     30          1.010332   0.000000
     31          1.278035   0.000000
     32          1.392332   0.000000

  0.1262379E-14 -0.2000000E+00  0.4000000E+00  0.1600000E-01
      1        -16.095160   1.000000
      2        -15.956866   1.000000
      3        -15.824032   1.000000
      4        -15.807949   1.000000
      5        -12.772696   1.000000
      6        -12.768604   1.000000
      7        -12.744622   1.000000
      8        -12.712716   1.000000
      9         -5.291691   1.000000
     10         -5.243525   1.000000
     11         -4.784799   1.000000
     12         -4.783732   1.000000
     13         -4.718026   1.000000
     14         -4.561179   1.000000
     15         -4.068236   1.000000
     16         -4.014261   1.000000
     17         -2.342940   1.000000
     18         -1.944720   1.000000
     19         -1.902898   1.000000
     20         -1.850985   1.000000
     21         -1.782597   1.000000
     22         -1.726039   1.000000
     23         -1.462341   1.000000
     24         -1.416621   0.999999
     25          0.272111   0.000000
     26          0.289915   0.000000
     27          0.425299   0.000000
     28          0.959325   0.000000
     29          0.961655   0.000000
     30          1.007978   0.000000
     31          1.284877   0.000000
     32          1.396294   0.000000

  0.4000000E+00 -0.2000000E+00  0.1262379E-14  0.1600000E-01
      1        -16.095024   1.000000
      2        -15.956554   1.000000
      3        -15.824324   1.000000
      4        -15.808147   1.000000
      5        -12.770268   1.000000
      6        -12.767193   1.000000
      7        -12.747262   1.000000
      8        -12.713956   1.000000
      9         -5.258126   1.000000
     10         -5.128536   1.000000
     11         -5.076372   1.000000
     12         -4.926372   1.000000
     13         -4.467105   1.000000
     14         -4.325214   1.000000
     15         -4.170667   1.000000
     16         -4.128927   1.000000
     17         -2.338929   1.000000
     18         -1.945527   1.000000
     19         -1.916872   1.000000
     20         -1.869916   1.000000
     21         -1.760019   1.000000
     22         -1.597634   1.000000
     23         -1.537823   1.000000
     24         -1.442499   1.000000
     25          0.264993   0.000000
     26          0.320077   0.000000
     27          0.405911   0.000000
     28          0.954861   0.000000
     29          0.964408   0.000000