       N       E                     dE             d eps       ncg     rms          rms(c)
DAV:   1     0.221181915026E+03    0.22118E+03   -0.22643E+04  4032   0.132E+03
DAV:   2    -0.591113383971E+02   -0.28029E+03   -0.26088E+03  5336   0.261E+02
DAV:   3    -0.825519948639E+02   -0.23441E+02   -0.22656E+02  4616   0.781E+01
DAV:   4    -0.831669592668E+02   -0.61496E+00   -0.61152E+00  4448   0.139E+01
DAV:   5    -0.831914492660E+02   -0.24490E-01   -0.24483E-01  4976   0.250E+00    0.237E+01
DAV:   6    -0.713002209673E+02    0.11891E+02   -0.28243E+01  4032   0.242E+01    0.125E+01
DAV:   7    -0.693487125332E+02    0.19515E+01   -0.61400E+00  4104   0.124E+01    0.527E+00
DAV:   8    -0.692332455340E+02    0.11547E+00   -0.67084E-01  4896   0.372E+00    0.839E-01
DAV:   9    -0.692333939528E+02   -0.14842E-03   -0.36878E-02  4032   0.903E-01    0.308E-01
DAV:  10    -0.692351888798E+02   -0.17949E-02   -0.42635E-03  4656   0.348E-01    0.909E-02
DAV:  11    -0.692356363862E+02   -0.44751E-03   -0.96771E-04  4056   0.159E-01    0.418E-02
DAV:  12    -0.692357240638E+02   -0.87678E-04   -0.13450E-04  2496   0.631E-02
   1 F= -.69235724E+02 E0= -.69235268E+02  d E =-.911588E-03
