 vasp.6.3.0 20Jan22 (build Oct  7 2022 22:46:23) complex                         
 executed on             LinuxGNU date 2025.04.23  14:53:42
 running on    2 total cores
 distrk:  each k-point on    2 cores,    1 groups
 distr:  one band on NCORE=   1 cores,    2 groups


--------------------------------------------------------------------------------------------------------


 INCAR:
   SYSTEM = CO2 crystal - PBE
   PREC = Normal
   ISMEAR = 0
   GGA = PE
   ENCUT = 520
   IBRION = -1

 POTCAR:    PAW_PBE C 08Apr2002                   
 POTCAR:    PAW_PBE C 08Apr2002                   
 POTCAR:    PAW_PBE C 08Apr2002                   
   SHA256 =  253f7b50bb8d59471dbedb8285d89021f4a42ed1a2c5d38a03a736e69125dd95 C/POTCAR              
   COPYR  = (c) Copyright 08Apr2002 Georg Kresse                                                    
   COPYR  = This file is part of the software VASP. Any use, copying, and all other rights are regul
   COPYR  = If you do not have a valid VASP license, you may not use, copy or distribute this file. 
   VRHFIN =C: s2p2                                                                                  
   LEXCH  = PE                                                                                      
   EATOM  =   147.1560 eV,   10.8157 Ry                                                             
                                                                                                    
   TITEL  = PAW_PBE C 08Apr2002                                                                     
   LULTRA =        F    use ultrasoft PP ?                                                          
   IUNSCR =        1    unscreen: 0-lin 1-nonlin 2-no                                               
   RPACOR =    1.200    partial core radius                                                         
   POMASS =   12.011; ZVAL   =    4.000    mass and valenz                                          
   RCORE  =    1.500    outmost cutoff radius                                                       
   RWIGS  =    1.630; RWIGS  =    0.863    wigner-seitz radius (au A)                               
   ENMAX  =  400.000; ENMIN  =  300.000 eV                                                          
   ICORE  =        2    local potential                                                             
   LCOR   =        T    correct aug charges                                                         
   LPAW   =        T    paw PP                                                                      
   EAUG   =  644.873                                                                                
   DEXC   =    0.000                                                                                
   RMAX   =    1.529    core radius for proj-oper                                                   
   RAUG   =    1.300    factor for augmentation sphere                                              
   RDEP   =    1.501    radius for radial grids                                                     
   RDEPT  =    1.300    core radius for aug-charge                                                  
                                                                                                    
   Atomic configuration                                                                             
    4 entries                                                                                       
     n  l   j            E        occ.                                                              
     1  0  0.50      -273.3789   2.0000                                                             
     2  0  0.50       -13.7508   2.0000                                                             
     2  1  0.50        -5.2854   2.0000                                                             
     3  2  1.50        -5.4423   0.0000                                                             
   Description                                                                                      
     l       E           TYP  RCUT    TYP  RCUT                                                     
     0    -13.7508458     23  1.200                                                                 
     0     -8.2022199     23  1.200                                                                 
     1     -5.2854383     23  1.500                                                                 
     1     34.0145650     23  1.500                                                                 
     2     -5.4423304      7  1.500                                                                 
  local pseudopotential read in
  partial core-charges read in
  partial kinetic energy density read in
  atomic valenz-charges read in
  non local Contribution for L=           0  read in
    real space projection operators read in
  non local Contribution for L=           0  read in
    real space projection operators read in
  non local Contribution for L=           1  read in
    real space projection operators read in
  non local Contribution for L=           1  read in
    real space projection operators read in
    PAW grid and wavefunctions read in

   number of l-projection  operators is LMAX  =           4
   number of lm-projection operators is LMMAX =           8

 POTCAR:    PAW_PBE C 08Apr2002                   
   SHA256 =  253f7b50bb8d59471dbedb8285d89021f4a42ed1a2c5d38a03a736e69125dd95 C/POTCAR              
   COPYR  = (c) Copyright 08Apr2002 Georg Kresse                                                    
   COPYR  = This file is part of the software VASP. Any use, copying, and all other rights are regul
   COPYR  = If you do not have a valid VASP license, you may not use, copy or distribute this file. 
   VRHFIN =C: s2p2                                                                                  
   LEXCH  = PE                                                                                      
   EATOM  =   147.1560 eV,   10.8157 Ry                                                             
                                                                                                    
   TITEL  = PAW_PBE C 08Apr2002                                                                     
   LULTRA =        F    use ultrasoft PP ?                                                          
   IUNSCR =        1    unscreen: 0-lin 1-nonlin 2-no                                               
   RPACOR =    1.200    partial core radius                                                         
   POMASS =   12.011; ZVAL   =    4.000    mass and valenz                                          
   RCORE  =    1.500    outmost cutoff radius                                                       
   RWIGS  =    1.630; RWIGS  =    0.863    wigner-seitz radius (au A)                               
   ENMAX  =  400.000; ENMIN  =  300.000 eV                                                          
   ICORE  =        2    local potential                                                             
   LCOR   =        T    correct aug charges                                                         
   LPAW   =        T    paw PP                                                                      
   EAUG   =  644.873                                                                                
   DEXC   =    0.000                                                                                
   RMAX   =    1.529    core radius for proj-oper                                                   
   RAUG   =    1.300    factor for augmentation sphere                                              
   RDEP   =    1.501    radius for radial grids                                                     
   RDEPT  =    1.300    core radius for aug-charge                                                  
                                                                                                    
   Atomic configuration                                                                             
    4 entries                                                                                       
     n  l   j            E        occ.                                                              
     1  0  0.50      -273.3789   2.0000                                                             
     2  0  0.50       -13.7508   2.0000                                                             
     2  1  0.50        -5.2854   2.0000                                                             
     3  2  1.50        -5.4423   0.0000                                                             
   Description                                                                                      
     l       E           TYP  RCUT    TYP  RCUT                                                     
     0    -13.7508458     23  1.200                                                                 
     0     -8.2022199     23  1.200                                                                 
     1     -5.2854383     23  1.500                                                                 
     1     34.0145650     23  1.500                                                                 
     2     -5.4423304      7  1.500                                                                 
  local pseudopotential read in
  partial core-charges read in
  partial kinetic energy density read in
  atomic valenz-charges read in
  non local Contribution for L=           0  read in
    real space projection operators read in
  non local Contribution for L=           0  read in
    real space projection operators read in
  non local Contribution for L=           1  read in
    real space projection operators read in
  non local Contribution for L=           1  read in
    real space projection operators read in
    PAW grid and wavefunctions read in

   number of l-projection  operators is LMAX  =           4
   number of lm-projection operators is LMMAX =           8

  PAW_PBE C 08Apr2002                   :
 energy of atom  1       EATOM= -147.1560
 kinetic energy error for atom=    0.0071 (will be added to EATOM!!)
  PAW_PBE C 08Apr2002                   :
 energy of atom  2       EATOM= -147.1560
 kinetic energy error for atom=    0.0071 (will be added to EATOM!!)


 POSCAR: CO2 crystal
  positions in direct lattice
  No initial velocities read in
 exchange correlation table for  LEXCH =        8
   RHO(1)=    0.500       N(1)  =     2000
   RHO(2)=  100.500       N(2)  =     4000



--------------------------------------------------------------------------------------------------------


 ion  position               nearest neighbor table
   1  0.000  0.000  0.000-   6 1.17   5 1.17
   2  0.500  1.000  0.500-   8 1.17   7 1.17
   3  0.000  0.500  0.500-  10 1.17   9 1.17
   4  0.500  0.500  0.000-  12 1.17  11 1.17
   5  0.879  0.878  0.121-   1 1.17
   6  0.122  0.122  0.879-   1 1.17
   7  0.622  0.878  0.621-   2 1.17
   8  0.378  0.122  0.379-   2 1.17
   9  0.122  0.623  0.621-   3 1.17
  10  0.879  0.378  0.379-   3 1.17
  11  0.622  0.378  0.879-   4 1.17
  12  0.379  0.622  0.122-   4 1.17

  LATTYP: Found a simple cubic cell.
 ALAT       =     5.5500013527
  
  Lattice vectors:
  
 A1 = (   5.5500013527,   0.0000000000,   0.0000000000)
 A2 = (   0.0000000000,   5.5500013527,   0.0000000000)
 A3 = (   0.0000000000,   0.0000000000,   5.5500013527)


Analysis of symmetry for initial positions (statically):
=====================================================================
 Subroutine PRICEL returns:
 Original cell was already a primitive cell.
 

 Routine SETGRP: Setting up the symmetry group for a 
 simple cubic supercell.


 Subroutine GETGRP returns: Found  1 space group operations
 (whereof  1 operations were pure point group operations)
 out of a pool of 48 trial point group operations.


The static configuration has the point symmetry C_1 .


Analysis of symmetry for dynamics (positions and initial velocities):
=====================================================================
 Subroutine PRICEL returns:
 Original cell was already a primitive cell.
 

 Routine SETGRP: Setting up the symmetry group for a 
 simple cubic supercell.


 Subroutine GETGRP returns: Found  1 space group operations
 (whereof  1 operations were pure point group operations)
 out of a pool of 48 trial point group operations.


The dynamic configuration has the point symmetry C_1 .


 Subroutine INISYM returns: Found  1 space group operations
 (whereof  1 operations are pure point group operations),
 and found     1 'primitive' translations


----------------------------------------------------------------------------------------

                                     Primitive cell                                     

  volume of cell :     170.9540

  direct lattice vectors                    reciprocal lattice vectors
     5.550001353  0.000000000  0.000000000     0.180180136  0.000000000  0.000000000
     0.000000000  5.550001353  0.000000000     0.000000000  0.180180136  0.000000000
     0.000000000  0.000000000  5.550001353     0.000000000  0.000000000  0.180180136

  length of vectors
     5.550001353  5.550001353  5.550001353     0.180180136  0.180180136  0.180180136

  position of ions in fractional coordinates (direct lattice)
     0.000159932  0.000234186  0.000005590
     0.499922253  0.999714613  0.500081824
     0.000166576  0.500470126  0.500094094
     0.500407259  0.499744997  0.000323148
     0.878581839  0.878076288  0.121135066
     0.121746336  0.122386257  0.878879909
     0.621505818  0.877768789  0.621413949
     0.378358234  0.121672505  0.378742380
     0.121666288  0.622839880  0.621085408
     0.878674520  0.378093706  0.379105561
     0.622091336  0.377838874  0.879051986
     0.378719609  0.621659779  0.121581084

  ion indices of the primitive-cell ions
   primitive index   ion index
                 1           1
                 2           2
                 3           3
                 4           4
                 5           5
                 6           6
                 7           7
                 8           8
                 9           9
                10          10
                11          11
                12          12

----------------------------------------------------------------------------------------



 KPOINTS: K-Points                                

Automatic generation of k-mesh.
 Grid dimensions read from file:
 generate k-points for:    5    5    5

 Generating k-lattice:

  Cartesian coordinates                     Fractional coordinates (reciprocal lattice)
     0.036036027  0.000000000  0.000000000     0.200000000  0.000000000  0.000000000
     0.000000000  0.036036027  0.000000000     0.000000000  0.200000000  0.000000000
     0.000000000  0.000000000  0.036036027     0.000000000  0.000000000  0.200000000

  Length of vectors
     0.036036027  0.036036027  0.036036027

  Shift w.r.t. Gamma in fractional coordinates (k-lattice)
     0.000000000  0.000000000  0.000000000

 
 Subroutine IBZKPT returns following result:
 ===========================================
 
 Found     63 irreducible k-points:
 
 Following reciprocal coordinates:
            Coordinates               Weight
  0.000000  0.000000  0.000000      1.000000
  0.200000  0.000000  0.000000      2.000000
  0.000000  0.200000  0.000000      2.000000
  0.000000  0.000000  0.200000      2.000000
  0.400000  0.000000  0.000000      2.000000
  0.000000  0.400000  0.000000      2.000000
  0.000000  0.000000  0.400000      2.000000
  0.200000  0.200000  0.000000      2.000000
  0.000000  0.200000  0.200000      2.000000
  0.200000  0.000000  0.200000      2.000000
 -0.200000  0.200000  0.000000      2.000000
 -0.200000  0.000000  0.200000      2.000000
  0.000000 -0.200000  0.200000      2.000000
  0.400000  0.200000  0.000000      2.000000
  0.000000  0.400000  0.200000      2.000000
  0.200000  0.000000  0.400000      2.000000
 -0.200000  0.400000  0.000000      2.000000
 -0.400000  0.000000  0.200000      2.000000
  0.000000  0.200000  0.400000      2.000000
  0.000000 -0.400000  0.200000      2.000000
 -0.200000  0.000000  0.400000      2.000000
  0.400000  0.000000  0.200000      2.000000
  0.000000 -0.200000  0.400000      2.000000
  0.400000 -0.200000  0.000000      2.000000
  0.200000  0.400000  0.000000      2.000000
  0.400000  0.400000  0.000000      2.000000
  0.000000  0.400000  0.400000      2.000000
  0.400000  0.000000  0.400000      2.000000
 -0.400000  0.400000  0.000000      2.000000
 -0.400000  0.000000  0.400000      2.000000
  0.000000 -0.400000  0.400000      2.000000
  0.200000  0.200000  0.200000      2.000000
 -0.200000  0.200000  0.200000      2.000000
 -0.200000 -0.200000  0.200000      2.000000
  0.200000 -0.200000  0.200000      2.000000
  0.400000  0.200000  0.200000      2.000000
  0.200000  0.400000  0.200000      2.000000
  0.200000  0.200000  0.400000      2.000000
 -0.200000  0.400000  0.200000      2.000000
 -0.400000  0.200000  0.200000      2.000000
 -0.200000  0.200000  0.400000      2.000000
 -0.400000 -0.200000  0.200000      2.000000
 -0.200000 -0.400000  0.200000      2.000000
 -0.200000 -0.200000  0.400000      2.000000
  0.200000 -0.400000  0.200000      2.000000
  0.400000 -0.200000  0.200000      2.000000
  0.200000 -0.200000  0.400000      2.000000
  0.400000  0.400000  0.200000      2.000000
  0.200000  0.400000  0.400000      2.000000
  0.400000  0.200000  0.400000      2.000000
 -0.400000  0.400000  0.200000      2.000000
 -0.400000  0.200000  0.400000      2.000000
 -0.200000  0.400000  0.400000      2.000000
 -0.400000 -0.400000  0.200000      2.000000
 -0.200000 -0.400000  0.400000      2.000000
 -0.400000 -0.200000  0.400000      2.000000
  0.400000 -0.400000  0.200000      2.000000
  0.400000 -0.200000  0.400000      2.000000
  0.200000 -0.400000  0.400000      2.000000
  0.400000  0.400000  0.400000      2.000000
 -0.400000  0.400000  0.400000      2.000000
 -0.400000 -0.400000  0.400000      2.000000
  0.400000 -0.400000  0.400000      2.000000
 
 Following cartesian coordinates:
            Coordinates               Weight
  0.000000  0.000000  0.000000      1.000000
  0.200000  0.000000  0.000000      2.000000
  0.000000  0.200000  0.000000      2.000000
  0.000000  0.000000  0.200000      2.000000
  0.400000  0.000000  0.000000      2.000000
  0.000000  0.400000  0.000000      2.000000
  0.000000  0.000000  0.400000      2.000000
  0.200000  0.200000  0.000000      2.000000
  0.000000  0.200000  0.200000      2.000000
  0.200000  0.000000  0.200000      2.000000
 -0.200000  0.200000  0.000000      2.000000
 -0.200000  0.000000  0.200000      2.000000
  0.000000 -0.200000  0.200000      2.000000
  0.400000  0.200000  0.000000      2.000000
  0.000000  0.400000  0.200000      2.000000
  0.200000  0.000000  0.400000      2.000000
 -0.200000  0.400000  0.000000      2.000000
 -0.400000  0.000000  0.200000      2.000000
  0.000000  0.200000  0.400000      2.000000
  0.000000 -0.400000  0.200000      2.000000
 -0.200000  0.000000  0.400000      2.000000
  0.400000  0.000000  0.200000      2.000000
  0.000000 -0.200000  0.400000      2.000000
  0.400000 -0.200000  0.000000      2.000000
  0.200000  0.400000  0.000000      2.000000
  0.400000  0.400000  0.000000      2.000000
  0.000000  0.400000  0.400000      2.000000
  0.400000  0.000000  0.400000      2.000000
 -0.400000  0.400000  0.000000      2.000000
 -0.400000  0.000000  0.400000      2.000000
  0.000000 -0.400000  0.400000      2.000000
  0.200000  0.200000  0.200000      2.000000
 -0.200000  0.200000  0.200000      2.000000
 -0.200000 -0.200000  0.200000      2.000000
  0.200000 -0.200000  0.200000      2.000000
  0.400000  0.200000  0.200000      2.000000
  0.200000  0.400000  0.200000      2.000000
  0.200000  0.200000  0.400000      2.000000
 -0.200000  0.400000  0.200000      2.000000
 -0.400000  0.200000  0.200000      2.000000
 -0.200000  0.200000  0.400000      2.000000
 -0.400000 -0.200000  0.200000      2.000000
 -0.200000 -0.400000  0.200000      2.000000
 -0.200000 -0.200000  0.400000      2.000000
  0.200000 -0.400000  0.200000      2.000000
  0.400000 -0.200000  0.200000      2.000000
  0.200000 -0.200000  0.400000      2.000000
  0.400000  0.400000  0.200000      2.000000
  0.200000  0.400000  0.400000      2.000000
  0.400000  0.200000  0.400000      2.000000
 -0.400000  0.400000  0.200000      2.000000
 -0.400000  0.200000  0.400000      2.000000
 -0.200000  0.400000  0.400000      2.000000
 -0.400000 -0.400000  0.200000      2.000000
 -0.200000 -0.400000  0.400000      2.000000
 -0.400000 -0.200000  0.400000      2.000000
  0.400000 -0.400000  0.200000      2.000000
  0.400000 -0.200000  0.400000      2.000000
  0.200000 -0.400000  0.400000      2.000000
  0.400000  0.400000  0.400000      2.000000
 -0.400000  0.400000  0.400000      2.000000
 -0.400000 -0.400000  0.400000      2.000000
  0.400000 -0.400000  0.400000      2.000000
 


--------------------------------------------------------------------------------------------------------




 Dimension of arrays:
   k-points           NKPTS =     63   k-points in BZ     NKDIM =     63   number of bands    NBANDS=     32
   number of dos      NEDOS =    301   number of ions     NIONS =     12
   non local maximal  LDIM  =      4   non local SUM 2l+1 LMDIM =      8
   total plane-waves  NPLWV =  32768
   max r-space proj   IRMAX =      1   max aug-charges    IRDMAX=   2461
   dimension x,y,z NGX =    32 NGY =   32 NGZ =   32
   dimension x,y,z NGXF=    64 NGYF=   64 NGZF=   64
   support grid    NGXF=    64 NGYF=   64 NGZF=   64
   ions per type =               4   8
   NGX,Y,Z   is equivalent  to a cutoff of   9.59,  9.59,  9.59 a.u.
   NGXF,Y,Z  is equivalent  to a cutoff of  19.17, 19.17, 19.17 a.u.

 SYSTEM =  CO2 crystal - PBE                       
 POSCAR =  CO2 crystal                             

 Startparameter for this run:
   NWRITE =      2    write-flag & timer
   PREC   = normal    normal or accurate (medium, high low for compatibility)
   ISTART =      0    job   : 0-new  1-cont  2-samecut
   ICHARG =      2    charge: 1-file 2-atom 10-const
   ISPIN  =      1    spin polarized calculation?
   LNONCOLLINEAR =      F non collinear calculations
   LSORBIT =      F    spin-orbit coupling
   INIWAV =      1    electr: 0-lowe 1-rand  2-diag
   LASPH  =      F    aspherical Exc in radial PAW
 Electronic Relaxation 1
   ENCUT  =  520.0 eV  38.22 Ry    6.18 a.u.  10.32 10.32 10.32*2*pi/ulx,y,z
   ENINI  =  520.0     initial cutoff
   ENAUG  =  644.9 eV  augmentation charge cutoff
   NELM   =     60;   NELMIN=  2; NELMDL= -5     # of ELM steps 
   EDIFF  = 0.1E-03   stopping-criterion for ELM
   LREAL  =      F    real-space projection
   NLSPLINE    = F    spline interpolate recip. space projectors
   LCOMPAT=      F    compatible to vasp.4.4
   GGA_COMPAT  = T    GGA compatible to vasp.4.4-vasp.4.6
   LMAXPAW     = -100 max onsite density
   LMAXMIX     =    2 max onsite mixed and CHGCAR
   VOSKOWN=      0    Vosko Wilk Nusair interpolation
   ROPT   =    0.00000   0.00000
 Ionic relaxation
   EDIFFG = 0.1E-02   stopping-criterion for IOM
   NSW    =      0    number of steps for IOM
   NBLOCK =      1;   KBLOCK =      1    inner block; outer block 
   IBRION =     -1    ionic relax: 0-MD 1-quasi-New 2-CG
   NFREE  =      0    steps in history (QN), initial steepest desc. (CG)
   ISIF   =      2    stress and relaxation
   IWAVPR =     10    prediction:  0-non 1-charg 2-wave 3-comb
   ISYM   =      2    0-nonsym 1-usesym 2-fastsym
   LCORR  =      T    Harris-Foulkes like correction to forces

   POTIM  = 0.5000    time-step for ionic-motion
   TEIN   =    0.0    initial temperature
   TEBEG  =    0.0;   TEEND  =   0.0 temperature during run
   SMASS  =  -3.00    Nose mass-parameter (am)
   estimated Nose-frequenzy (Omega)   =  0.10E-29 period in steps = 0.13E+47 mass=  -0.704E-27a.u.
   SCALEE = 1.0000    scale energy and forces
   NPACO  =    256;   APACO  = 10.0  distance and # of slots for P.C.
   PSTRESS=    0.0 pullay stress

  Mass of Ions in am
   POMASS =  12.01 12.01
  Ionic Valenz
   ZVAL   =   4.00  4.00
  Atomic Wigner-Seitz radii
   RWIGS  =  -1.00 -1.00
  virtual crystal weights 
   VCA    =   1.00  1.00
   NELECT =      48.0000    total number of electrons
   NUPDOWN=      -1.0000    fix difference up-down

 DOS related values:
   EMIN   =  10.00;   EMAX   =-10.00  energy-range for DOS
   EFERMI =   0.00
   ISMEAR =     0;   SIGMA  =   0.20  broadening in eV -4-tet -1-fermi 0-gaus

 Electronic relaxation 2 (details)
   IALGO  =     38    algorithm
   LDIAG  =      T    sub-space diagonalisation (order eigenvalues)
   LSUBROT=      F    optimize rotation matrix (better conditioning)
   TURBO    =      0    0=normal 1=particle mesh
   IRESTART =      0    0=no restart 2=restart with 2 vectors
   NREBOOT  =      0    no. of reboots
   NMIN     =      0    reboot dimension
   EREF     =   0.00    reference energy to select bands
   IMIX   =      4    mixing-type and parameters
     AMIX     =   0.40;   BMIX     =  1.00
     AMIX_MAG =   1.60;   BMIX_MAG =  1.00
     AMIN     =   0.10
     WC   =   100.;   INIMIX=   1;  MIXPRE=   1;  MAXMIX= -45

 Intra band minimization:
   WEIMIN = 0.0000     energy-eigenvalue tresh-hold
   EBREAK =  0.78E-06  absolut break condition
   DEPER  =   0.30     relativ break condition  

   TIME   =   0.40     timestep for ELM

  volume/ion in A,a.u.               =      14.25        96.14
  Fermi-wavevector in a.u.,A,eV,Ry     =   1.072002  2.025790 15.635648  1.149188
  Thomas-Fermi vector in A             =   2.207759

 Write flags
   LWAVE        =      T    write WAVECAR
   LDOWNSAMPLE  =      F    k-point downsampling of WAVECAR
   LCHARG       =      T    write CHGCAR
   LVTOT        =      F    write LOCPOT, total local potential
   LVHAR        =      F    write LOCPOT, Hartree potential only
   LELF         =      F    write electronic localiz. function (ELF)
   LORBIT       =      0    0 simple, 1 ext, 2 COOP (PROOUT), +10 PAW based schemes


 Dipole corrections
   LMONO  =      F    monopole corrections only (constant potential shift)
   LDIPOL =      F    correct potential (dipole corrections)
   IDIPOL =      0    1-x, 2-y, 3-z, 4-all directions 
   EPSILON=  1.0000000 bulk dielectric constant

 Exchange correlation treatment:
   GGA     =    PE    GGA type
   LEXCH   =     8    internal setting for exchange type
   LIBXC   =     F    Libxc                    
   VOSKOWN =     0    Vosko Wilk Nusair interpolation
   LHFCALC =     F    Hartree Fock is set to
   LHFONE  =     F    Hartree Fock one center treatment
   AEXX    =    0.0000 exact exchange contribution

 Linear response parameters
   LEPSILON=     F    determine dielectric tensor
   LRPA    =     F    only Hartree local field effects (RPA)
   LNABLA  =     F    use nabla operator in PAW spheres
   LVEL    =     F    velocity operator in full k-point grid
   CSHIFT  =0.1000    complex shift for real part using Kramers Kronig
   OMEGAMAX=  -1.0    maximum frequency
   DEG_THRESHOLD= 0.2000000E-02 threshold for treating states as degnerate
   RTIME   =   -0.100 relaxation time in fs
  (WPLASMAI=    0.000 imaginary part of plasma frequency in eV, 0.658/RTIME)
   DFIELD  = 0.0000000 0.0000000 0.0000000 field for delta impulse in time

  Optional k-point grid parameters
   LKPOINTS_OPT  =     F    use optional k-point grid
   KPOINTS_OPT_MODE=     1    mode for optional k-point grid

 Orbital magnetization related:
   ORBITALMAG=     F  switch on orbital magnetization
   LCHIMAG   =     F  perturbation theory with respect to B field
   DQ        =  0.001000  dq finite difference perturbation B field
   LLRAUG    =     F  two centre corrections for induced B field



--------------------------------------------------------------------------------------------------------


 Static calculation
 charge density and potential will be updated during run
 non-spin polarized calculation
 Variant of blocked Davidson
 Davidson routine will perform the subspace rotation
 perform sub-space diagonalisation
    after iterative eigenvector-optimisation
 modified Broyden-mixing scheme, WC =      100.0
 initial mixing is a Kerker type mixing with AMIX =  0.4000 and BMIX =      1.0000
 Hartree-type preconditioning will be used
 using additional bands            8
 reciprocal scheme for non local part
 use partial core corrections
 calculate Harris-corrections to forces   (improved forces if not selfconsistent)
 use gradient corrections 
 use of overlap-Matrix (Vanderbilt PP)
 Gauss-broadening in eV      SIGMA  =   0.20


--------------------------------------------------------------------------------------------------------


  energy-cutoff  :      520.00
  volume of cell :      170.95
      direct lattice vectors                 reciprocal lattice vectors
     5.550001353  0.000000000  0.000000000     0.180180136  0.000000000  0.000000000
     0.000000000  5.550001353  0.000000000     0.000000000  0.180180136  0.000000000
     0.000000000  0.000000000  5.550001353     0.000000000  0.000000000  0.180180136

  length of vectors
     5.550001353  5.550001353  5.550001353     0.180180136  0.180180136  0.180180136



 k-points in units of 2pi/SCALE and weight: K-Points                                
   0.00000000  0.00000000  0.00000000       0.008
   0.20000000  0.00000000  0.00000000       0.016
   0.00000000  0.20000000  0.00000000       0.016
   0.00000000  0.00000000  0.20000000       0.016
   0.40000000  0.00000000  0.00000000       0.016
   0.00000000  0.40000000  0.00000000       0.016
   0.00000000  0.00000000  0.40000000       0.016
   0.20000000  0.20000000  0.00000000       0.016
   0.00000000  0.20000000  0.20000000       0.016
   0.20000000  0.00000000  0.20000000       0.016
  -0.20000000  0.20000000  0.00000000       0.016
  -0.20000000  0.00000000  0.20000000       0.016
   0.00000000 -0.20000000  0.20000000       0.016
   0.40000000  0.20000000  0.00000000       0.016
   0.00000000  0.40000000  0.20000000       0.016
   0.20000000  0.00000000  0.40000000       0.016
  -0.20000000  0.40000000  0.00000000       0.016
  -0.40000000  0.00000000  0.20000000       0.016
   0.00000000  0.20000000  0.40000000       0.016
   0.00000000 -0.40000000  0.20000000       0.016
  -0.20000000  0.00000000  0.40000000       0.016
   0.40000000  0.00000000  0.20000000       0.016
   0.00000000 -0.20000000  0.40000000       0.016
   0.40000000 -0.20000000  0.00000000       0.016
   0.20000000  0.40000000  0.00000000       0.016
   0.40000000  0.40000000  0.00000000       0.016
   0.00000000  0.40000000  0.40000000       0.016
   0.40000000  0.00000000  0.40000000       0.016
  -0.40000000  0.40000000  0.00000000       0.016
  -0.40000000  0.00000000  0.40000000       0.016
   0.00000000 -0.40000000  0.40000000       0.016
   0.20000000  0.20000000  0.20000000       0.016
  -0.20000000  0.20000000  0.20000000       0.016
  -0.20000000 -0.20000000  0.20000000       0.016
   0.20000000 -0.20000000  0.20000000       0.016
   0.40000000  0.20000000  0.20000000       0.016
   0.20000000  0.40000000  0.20000000       0.016
   0.20000000  0.20000000  0.40000000       0.016
  -0.20000000  0.40000000  0.20000000       0.016
  -0.40000000  0.20000000  0.20000000       0.016
  -0.20000000  0.20000000  0.40000000       0.016
  -0.40000000 -0.20000000  0.20000000       0.016
  -0.20000000 -0.40000000  0.20000000       0.016
  -0.20000000 -0.20000000  0.40000000       0.016
   0.20000000 -0.40000000  0.20000000       0.016
   0.40000000 -0.20000000  0.20000000       0.016
   0.20000000 -0.20000000  0.40000000       0.016
   0.40000000  0.40000000  0.20000000       0.016
   0.20000000  0.40000000  0.40000000       0.016
   0.40000000  0.20000000  0.40000000       0.016
  -0.40000000  0.40000000  0.20000000       0.016
  -0.40000000  0.20000000  0.40000000       0.016
  -0.20000000  0.40000000  0.40000000       0.016
  -0.40000000 -0.40000000  0.20000000       0.016
  -0.20000000 -0.40000000  0.40000000       0.016
  -0.40000000 -0.20000000  0.40000000       0.016
   0.40000000 -0.40000000  0.20000000       0.016
   0.40000000 -0.20000000  0.40000000       0.016
   0.20000000 -0.40000000  0.40000000       0.016
   0.40000000  0.40000000  0.40000000       0.016
  -0.40000000  0.40000000  0.40000000       0.016
  -0.40000000 -0.40000000  0.40000000       0.016
   0.40000000 -0.40000000  0.40000000       0.016

 k-points in reciprocal lattice and weights: K-Points                                
   0.00000000  0.00000000  0.00000000       0.008
   0.20000000  0.00000000  0.00000000       0.016
   0.00000000  0.20000000  0.00000000       0.016
   0.00000000  0.00000000  0.20000000       0.016
   0.40000000  0.00000000  0.00000000       0.016
   0.00000000  0.40000000  0.00000000       0.016
   0.00000000  0.00000000  0.40000000       0.016
   0.20000000  0.20000000  0.00000000       0.016
   0.00000000  0.20000000  0.20000000       0.016
   0.20000000  0.00000000  0.20000000       0.016
  -0.20000000  0.20000000  0.00000000       0.016
  -0.20000000  0.00000000  0.20000000       0.016
   0.00000000 -0.20000000  0.20000000       0.016
   0.40000000  0.20000000  0.00000000       0.016
   0.00000000  0.40000000  0.20000000       0.016
   0.20000000  0.00000000  0.40000000       0.016
  -0.20000000  0.40000000  0.00000000       0.016
  -0.40000000  0.00000000  0.20000000       0.016
   0.00000000  0.20000000  0.40000000       0.016
   0.00000000 -0.40000000  0.20000000       0.016
  -0.20000000  0.00000000  0.40000000       0.016
   0.40000000  0.00000000  0.20000000       0.016
   0.00000000 -0.20000000  0.40000000       0.016
   0.40000000 -0.20000000  0.00000000       0.016
   0.20000000  0.40000000  0.00000000       0.016
   0.40000000  0.40000000  0.00000000       0.016
   0.00000000  0.40000000  0.40000000       0.016
   0.40000000  0.00000000  0.40000000       0.016
  -0.40000000  0.40000000  0.00000000       0.016
  -0.40000000  0.00000000  0.40000000       0.016
   0.00000000 -0.40000000  0.40000000       0.016
   0.20000000  0.20000000  0.20000000       0.016
  -0.20000000  0.20000000  0.20000000       0.016
  -0.20000000 -0.20000000  0.20000000       0.016
   0.20000000 -0.20000000  0.20000000       0.016
   0.40000000  0.20000000  0.20000000       0.016
   0.20000000  0.40000000  0.20000000       0.016
   0.20000000  0.20000000  0.40000000       0.016
  -0.20000000  0.40000000  0.20000000       0.016
  -0.40000000  0.20000000  0.20000000       0.016
  -0.20000000  0.20000000  0.40000000       0.016
  -0.40000000 -0.20000000  0.20000000       0.016
  -0.20000000 -0.40000000  0.20000000       0.016
  -0.20000000 -0.20000000  0.40000000       0.016
   0.20000000 -0.40000000  0.20000000       0.016
   0.40000000 -0.20000000  0.20000000       0.016
   0.20000000 -0.20000000  0.40000000       0.016
   0.40000000  0.40000000  0.20000000       0.016
   0.20000000  0.40000000  0.40000000       0.016
   0.40000000  0.20000000  0.40000000       0.016
  -0.40000000  0.40000000  0.20000000       0.016
  -0.40000000  0.20000000  0.40000000       0.016
  -0.20000000  0.40000000  0.40000000       0.016
  -0.40000000 -0.40000000  0.20000000       0.016
  -0.20000000 -0.40000000  0.40000000       0.016
  -0.40000000 -0.20000000  0.40000000       0.016
   0.40000000 -0.40000000  0.20000000       0.016
   0.40000000 -0.20000000  0.40000000       0.016
   0.20000000 -0.40000000  0.40000000       0.016
   0.40000000  0.40000000  0.40000000       0.016
  -0.40000000  0.40000000  0.40000000       0.016
  -0.40000000 -0.40000000  0.40000000       0.016
   0.40000000 -0.40000000  0.40000000       0.016

 position of ions in fractional coordinates (direct lattice) 
   0.00015993  0.00023419  0.00000559
   0.49992225  0.99971461  0.50008182
   0.00016658  0.50047013  0.50009409
   0.50040726  0.49974500  0.00032315
   0.87858184  0.87807629  0.12113507
   0.12174634  0.12238626  0.87887991
   0.62150582  0.87776879  0.62141395
   0.37835823  0.12167251  0.37874238
   0.12166629  0.62283988  0.62108541
   0.87867452  0.37809371  0.37910556
   0.62209134  0.37783887  0.87905199
   0.37871961  0.62165978  0.12158108

 position of ions in cartesian coordinates  (Angst):
   0.00088762  0.00129973  0.00003103
   2.77456918  5.54841745  2.77545480
   0.00092449  2.77760987  2.77552290
   2.77726096  2.77358541  0.00179347
   4.87613039  4.87332459  0.67229978
   0.67569233  0.67924389  4.87778469
   3.44935813  4.87161796  3.44884826
   2.09988871  0.67528257  2.10202072
   0.67524806  3.45676218  3.44702485
   4.87664478  2.09842058  2.10403638
   3.45260776  2.09700626  4.87873971
   2.10189434  3.45021261  0.67477518



--------------------------------------------------------------------------------------------------------


 k-point   1 :   0.0000 0.0000 0.0000  plane waves:    4625
 k-point   2 :   0.2000 0.0000 0.0000  plane waves:    4613
 k-point   3 :   0.0000 0.2000 0.0000  plane waves:    4613
 k-point   4 :   0.0000 0.0000 0.2000  plane waves:    4613
 k-point   5 :   0.4000 0.0000 0.0000  plane waves:    4612
 k-point   6 :   0.0000 0.4000 0.0000  plane waves:    4612
 k-point   7 :   0.0000 0.0000 0.4000  plane waves:    4612
 k-point   8 :   0.2000 0.2000 0.0000  plane waves:    4633
 k-point   9 :   0.0000 0.2000 0.2000  plane waves:    4633
 k-point  10 :   0.2000 0.0000 0.2000  plane waves:    4633
 k-point  11 :  -0.2000 0.2000 0.0000  plane waves:    4633
 k-point  12 :  -0.2000 0.0000 0.2000  plane waves:    4633
 k-point  13 :   0.0000-0.2000 0.2000  plane waves:    4633
 k-point  14 :   0.4000 0.2000 0.0000  plane waves:    4594
 k-point  15 :   0.0000 0.4000 0.2000  plane waves:    4594
 k-point  16 :   0.2000 0.0000 0.4000  plane waves:    4594
 k-point  17 :  -0.2000 0.4000 0.0000  plane waves:    4594
 k-point  18 :  -0.4000 0.0000 0.2000  plane waves:    4594
 k-point  19 :   0.0000 0.2000 0.4000  plane waves:    4594
 k-point  20 :   0.0000-0.4000 0.2000  plane waves:    4594
 k-point  21 :  -0.2000 0.0000 0.4000  plane waves:    4594
 k-point  22 :   0.4000 0.0000 0.2000  plane waves:    4594
 k-point  23 :   0.0000-0.2000 0.4000  plane waves:    4594
 k-point  24 :   0.4000-0.2000 0.0000  plane waves:    4594
 k-point  25 :   0.2000 0.4000 0.0000  plane waves:    4594
 k-point  26 :   0.4000 0.4000 0.0000  plane waves:    4594
 k-point  27 :   0.0000 0.4000 0.4000  plane waves:    4594
 k-point  28 :   0.4000 0.0000 0.4000  plane waves:    4594
 k-point  29 :  -0.4000 0.4000 0.0000  plane waves:    4594
 k-point  30 :  -0.4000 0.0000 0.4000  plane waves:    4594
 k-point  31 :   0.0000-0.4000 0.4000  plane waves:    4594
 k-point  32 :   0.2000 0.2000 0.2000  plane waves:    4605
 k-point  33 :  -0.2000 0.2000 0.2000  plane waves:    4605
 k-point  34 :  -0.2000-0.2000 0.2000  plane waves:    4605
 k-point  35 :   0.2000-0.2000 0.2000  plane waves:    4605
 k-point  36 :   0.4000 0.2000 0.2000  plane waves:    4603
 k-point  37 :   0.2000 0.4000 0.2000  plane waves:    4603
 k-point  38 :   0.2000 0.2000 0.4000  plane waves:    4603
 k-point  39 :  -0.2000 0.4000 0.2000  plane waves:    4603
 k-point  40 :  -0.4000 0.2000 0.2000  plane waves:    4603
 k-point  41 :  -0.2000 0.2000 0.4000  plane waves:    4603
 k-point  42 :  -0.4000-0.2000 0.2000  plane waves:    4603
 k-point  43 :  -0.2000-0.4000 0.2000  plane waves:    4603
 k-point  44 :  -0.2000-0.2000 0.4000  plane waves:    4603
 k-point  45 :   0.2000-0.4000 0.2000  plane waves:    4603
 k-point  46 :   0.4000-0.2000 0.2000  plane waves:    4603
 k-point  47 :   0.2000-0.2000 0.4000  plane waves:    4603
 k-point  48 :   0.4000 0.4000 0.2000  plane waves:    4593
 k-point  49 :   0.2000 0.4000 0.4000  plane waves:    4593
 k-point  50 :   0.4000 0.2000 0.4000  plane waves:    4593
 k-point  51 :  -0.4000 0.4000 0.2000  plane waves:    4593
 k-point  52 :  -0.4000 0.2000 0.4000  plane waves:    4593
 k-point  53 :  -0.2000 0.4000 0.4000  plane waves:    4593
 k-point  54 :  -0.4000-0.4000 0.2000  plane waves:    4593
 k-point  55 :  -0.2000-0.4000 0.4000  plane waves:    4593
 k-point  56 :  -0.4000-0.2000 0.4000  plane waves:    4593
 k-point  57 :   0.4000-0.4000 0.2000  plane waves:    4593
 k-point  58 :   0.4000-0.2000 0.4000  plane waves:    4593
 k-point  59 :   0.2000-0.4000 0.4000  plane waves:    4593
 k-point  60 :   0.4000 0.4000 0.4000  plane waves:    4623
 k-point  61 :  -0.4000 0.4000 0.4000  plane waves:    4623
 k-point  62 :  -0.4000-0.4000 0.4000  plane waves:    4623
 k-point  63 :   0.4000-0.4000 0.4000  plane waves:    4623

 maximum and minimum number of plane-waves per node :      4633     4593

 maximum number of plane-waves:      4633
 maximum index in each direction: 
   IXMAX=   10   IYMAX=   10   IZMAX=   10
   IXMIN=  -10   IYMIN=  -10   IZMIN=  -10


 serial   3D FFT for wavefunctions
 parallel 3D FFT for charge:
    minimum data exchange during FFTs selected (reduces bandwidth)


 total amount of memory used by VASP MPI-rank0   158075. kBytes
=======================================================================

   base      :      30000. kBytes
   nonl-proj :      38258. kBytes
   fftplans  :       4666. kBytes
   grid      :       8830. kBytes
   one-center:         36. kBytes
   wavefun   :      76285. kBytes

     INWAV:  cpu time      0.0000: real time      0.0000
 Broyden mixing: mesh for mixing (old mesh)
   NGX = 21   NGY = 21   NGZ = 21
  (NGX  = 64   NGY  = 64   NGZ  = 64)
  gives a total of   9261 points

 initial charge density was supplied:
 charge density of overlapping atoms calculated
 number of electron      48.0000000 magnetization 
 keeping initial charge density in first step


--------------------------------------------------------------------------------------------------------


 Maximum index for augmentation-charges         1090 (set IRDMAX)


--------------------------------------------------------------------------------------------------------


 First call to EWALD:  gamma=   0.319
 Maximum number of real-space cells 3x 3x 3
 Maximum number of reciprocal cells 3x 3x 3

    FEWALD:  cpu time      0.0010: real time      0.0010


--------------------------------------- Iteration      1(   1)  ---------------------------------------


    POTLOK:  cpu time      0.0391: real time      0.0391
    SETDIJ:  cpu time      0.0041: real time      0.0041
     EDDAV:  cpu time      3.8174: real time      3.8204
       DOS:  cpu time      0.0015: real time      0.0015
    --------------------------------------------
      LOOP:  cpu time      3.8621: real time      3.8651

 eigenvalue-minimisations  :  4032
 total energy-change (2. order) : 0.2211819E+03  (-0.2264301E+04)
 number of electron      48.0000000 magnetization 
 augmentation part       48.0000000 magnetization 

 Free energy of the ion-electron system (eV)
  ---------------------------------------------------
  alpha Z        PSCENC =        69.19479570
  Ewald energy   TEWEN  =     -1143.37592847
  -Hartree energ DENC   =      -459.69675202
  -exchange      EXHF   =         0.00000000
  -V(xc)+E(xc)   XCENC  =       148.56560462
  PAW double counting   =      1302.26455656    -1309.09742627
  entropy T*S    EENTRO =        -0.03688072
  eigenvalues    EBANDS =      -152.42277413
  atomic energy  EATOM  =      1765.78671975
  Solvation  Ediel_sol  =         0.00000000
  ---------------------------------------------------
  free energy    TOTEN  =       221.18191503 eV

  energy without entropy =      221.21879575  energy(sigma->0) =      221.20035539


--------------------------------------------------------------------------------------------------------




--------------------------------------- Iteration      1(   2)  ---------------------------------------


     EDDAV:  cpu time      4.7252: real time      4.7257
       DOS:  cpu time      0.0017: real time      0.0017
    --------------------------------------------
      LOOP:  cpu time      4.7269: real time      4.7274

 eigenvalue-minimisations  :  5336
 total energy-change (2. order) :-0.2802933E+03  (-0.2608759E+03)
 number of electron      48.0000000 magnetization 
 augmentation part       48.0000000 magnetization 

 Free energy of the ion-electron system (eV)
  ---------------------------------------------------
  alpha Z        PSCENC =        69.19479570
  Ewald energy   TEWEN  =     -1143.37592847
  -Hartree energ DENC   =      -459.69675202
  -exchange      EXHF   =         0.00000000
  -V(xc)+E(xc)   XCENC  =       148.56560462
  PAW double counting   =      1302.26455656    -1309.09742627
  entropy T*S    EENTRO =        -0.00195928
  eigenvalues    EBANDS =      -432.75094899
  atomic energy  EATOM  =      1765.78671975
  Solvation  Ediel_sol  =         0.00000000
  ---------------------------------------------------
  free energy    TOTEN  =       -59.11133840 eV

  energy without entropy =      -59.10937912  energy(sigma->0) =      -59.11035876


--------------------------------------------------------------------------------------------------------




--------------------------------------- Iteration      1(   3)  ---------------------------------------


     EDDAV:  cpu time      4.2344: real time      4.2344
       DOS:  cpu time      0.0017: real time      0.0017
    --------------------------------------------
      LOOP:  cpu time      4.2361: real time      4.2362

 eigenvalue-minimisations  :  4616
 total energy-change (2. order) :-0.2344066E+02  (-0.2265643E+02)
 number of electron      48.0000000 magnetization 
 augmentation part       48.0000000 magnetization 

 Free energy of the ion-electron system (eV)
  ---------------------------------------------------
  alpha Z        PSCENC =        69.19479570
  Ewald energy   TEWEN  =     -1143.37592847
  -Hartree energ DENC   =      -459.69675202
  -exchange      EXHF   =         0.00000000
  -V(xc)+E(xc)   XCENC  =       148.56560462
  PAW double counting   =      1302.26455656    -1309.09742627
  entropy T*S    EENTRO =        -0.00000084
  eigenvalues    EBANDS =      -456.19356390
  atomic energy  EATOM  =      1765.78671975
  Solvation  Ediel_sol  =         0.00000000
  ---------------------------------------------------
  free energy    TOTEN  =       -82.55199486 eV

  energy without entropy =      -82.55199403  energy(sigma->0) =      -82.55199445


--------------------------------------------------------------------------------------------------------




--------------------------------------- Iteration      1(   4)  ---------------------------------------


     EDDAV:  cpu time      4.1968: real time      4.1968
       DOS:  cpu time      0.0017: real time      0.0017
    --------------------------------------------
      LOOP:  cpu time      4.1985: real time      4.1985

 eigenvalue-minimisations  :  4448
 total energy-change (2. order) :-0.6149644E+00  (-0.6115191E+00)
 number of electron      48.0000000 magnetization 
 augmentation part       48.0000000 magnetization 

 Free energy of the ion-electron system (eV)
  ---------------------------------------------------
  alpha Z        PSCENC =        69.19479570
  Ewald energy   TEWEN  =     -1143.37592847
  -Hartree energ DENC   =      -459.69675202
  -exchange      EXHF   =         0.00000000
  -V(xc)+E(xc)   XCENC  =       148.56560462
  PAW double counting   =      1302.26455656    -1309.09742627
  entropy T*S    EENTRO =        -0.00000063
  eigenvalues    EBANDS =      -456.80852851
  atomic energy  EATOM  =      1765.78671975
  Solvation  Ediel_sol  =         0.00000000
  ---------------------------------------------------
  free energy    TOTEN  =       -83.16695927 eV

  energy without entropy =      -83.16695864  energy(sigma->0) =      -83.16695895


--------------------------------------------------------------------------------------------------------




--------------------------------------- Iteration      1(   5)  ---------------------------------------


     EDDAV:  cpu time      4.6741: real time      4.6741
       DOS:  cpu time      0.0017: real time      0.0017
    CHARGE:  cpu time      0.1833: real time      0.1833
    MIXING:  cpu time      0.0019: real time      0.0019
    --------------------------------------------
      LOOP:  cpu time      4.8611: real time      4.8611

 eigenvalue-minimisations  :  4976
 total energy-change (2. order) :-0.2449000E-01  (-0.2448347E-01)
 number of electron      48.0000021 magnetization 
 augmentation part        0.9123025 magnetization 

 Broyden mixing:
  rms(total) = 0.23741E+01    rms(broyden)= 0.23738E+01
  rms(prec ) = 0.39118E+01
  weight for this iteration     100.00

 Free energy of the ion-electron system (eV)
  ---------------------------------------------------
  alpha Z        PSCENC =        69.19479570
  Ewald energy   TEWEN  =     -1143.37592847
  -Hartree energ DENC   =      -459.69675202
  -exchange      EXHF   =         0.00000000
  -V(xc)+E(xc)   XCENC  =       148.56560462
  PAW double counting   =      1302.26455656    -1309.09742627
  entropy T*S    EENTRO =        -0.00000063
  eigenvalues    EBANDS =      -456.83301851
  atomic energy  EATOM  =      1765.78671975
  Solvation  Ediel_sol  =         0.00000000
  ---------------------------------------------------
  free energy    TOTEN  =       -83.19144927 eV

  energy without entropy =      -83.19144864  energy(sigma->0) =      -83.19144895


--------------------------------------------------------------------------------------------------------




--------------------------------------- Iteration      1(   6)  ---------------------------------------


    POTLOK:  cpu time      0.0386: real time      0.0386
    SETDIJ:  cpu time      0.0041: real time      0.0041
     EDDAV:  cpu time      3.8138: real time      3.8139
       DOS:  cpu time      0.0019: real time      0.0019
    CHARGE:  cpu time      0.1867: real time      0.1867
    MIXING:  cpu time      0.0019: real time      0.0019
    --------------------------------------------
      LOOP:  cpu time      4.0469: real time      4.0470

 eigenvalue-minimisations  :  4032
 total energy-change (2. order) : 0.1189123E+02  (-0.2824338E+01)
 number of electron      48.0000014 magnetization 
 augmentation part        0.8597921 magnetization 

 Broyden mixing:
  rms(total) = 0.12466E+01    rms(broyden)= 0.12465E+01
  rms(prec ) = 0.17573E+01
  weight for this iteration     100.00

 eigenvalues of (default mixing * dielectric matrix)
  average eigenvalue GAMMA=   1.6093
  1.6093

 Free energy of the ion-electron system (eV)
  ---------------------------------------------------
  alpha Z        PSCENC =        69.19479570
  Ewald energy   TEWEN  =     -1143.37592847
  -Hartree energ DENC   =      -526.43481566
  -exchange      EXHF   =         0.00000000
  -V(xc)+E(xc)   XCENC  =       152.93677931
  PAW double counting   =      2399.64320800    -2407.66243508
  entropy T*S    EENTRO =        -0.00001515
  eigenvalues    EBANDS =      -381.38852937
  atomic energy  EATOM  =      1765.78671975
  Solvation  Ediel_sol  =         0.00000000
  ---------------------------------------------------
  free energy    TOTEN  =       -71.30022097 eV

  energy without entropy =      -71.30020582  energy(sigma->0) =      -71.30021339


--------------------------------------------------------------------------------------------------------




--------------------------------------- Iteration      1(   7)  ---------------------------------------


    POTLOK:  cpu time      0.0386: real time      0.0386
    SETDIJ:  cpu time      0.0041: real time      0.0041
     EDDAV:  cpu time      3.8661: real time      3.8662
       DOS:  cpu time      0.0019: real time      0.0019
    CHARGE:  cpu time      0.1893: real time      0.1893
    MIXING:  cpu time      0.0019: real time      0.0019
    --------------------------------------------
      LOOP:  cpu time      4.1019: real time      4.1020

 eigenvalue-minimisations  :  4104
 total energy-change (2. order) : 0.1951508E+01  (-0.6140015E+00)
 number of electron      48.0000012 magnetization 
 augmentation part        0.8101375 magnetization 

 Broyden mixing:
  rms(total) = 0.52692E+00    rms(broyden)= 0.52688E+00
  rms(prec ) = 0.63708E+00
  weight for this iteration     100.00

 eigenvalues of (default mixing * dielectric matrix)
  average eigenvalue GAMMA=   1.7671
  1.3465  2.1878

 Free energy of the ion-electron system (eV)
  ---------------------------------------------------
  alpha Z        PSCENC =        69.19479570
  Ewald energy   TEWEN  =     -1143.37592847
  -Hartree energ DENC   =      -567.50235016
  -exchange      EXHF   =         0.00000000
  -V(xc)+E(xc)   XCENC  =       156.09396070
  PAW double counting   =      3937.75745404    -3946.39067499
  entropy T*S    EENTRO =        -0.00035353
  eigenvalues    EBANDS =      -340.91233556
  atomic energy  EATOM  =      1765.78671975
  Solvation  Ediel_sol  =         0.00000000
  ---------------------------------------------------
  free energy    TOTEN  =       -69.34871253 eV

  energy without entropy =      -69.34835900  energy(sigma->0) =      -69.34853577


--------------------------------------------------------------------------------------------------------




--------------------------------------- Iteration      1(   8)  ---------------------------------------


    POTLOK:  cpu time      0.0386: real time      0.0386
    SETDIJ:  cpu time      0.0041: real time      0.0041
     EDDAV:  cpu time      4.4243: real time      4.4245
       DOS:  cpu time      0.0020: real time      0.0020
    CHARGE:  cpu time      0.1930: real time      0.1930
    MIXING:  cpu time      0.0019: real time      0.0019
    --------------------------------------------
      LOOP:  cpu time      4.6638: real time      4.6640

 eigenvalue-minimisations  :  4896
 total energy-change (2. order) : 0.1154670E+00  (-0.6708402E-01)
 number of electron      48.0000012 magnetization 
 augmentation part        0.7899891 magnetization 

 Broyden mixing:
  rms(total) = 0.83921E-01    rms(broyden)= 0.83896E-01
  rms(prec ) = 0.11571E+00
  weight for this iteration     100.00

 eigenvalues of (default mixing * dielectric matrix)
  average eigenvalue GAMMA=   1.5722
  2.2579  1.2293  1.2293

 Free energy of the ion-electron system (eV)
  ---------------------------------------------------
  alpha Z        PSCENC =        69.19479570
  Ewald energy   TEWEN  =     -1143.37592847
  -Hartree energ DENC   =      -576.14666843
  -exchange      EXHF   =         0.00000000
  -V(xc)+E(xc)   XCENC  =       157.03004437
  PAW double counting   =      5071.45534547    -5080.12970049
  entropy T*S    EENTRO =        -0.00098036
  eigenvalues    EBANDS =      -333.04687306
  atomic energy  EATOM  =      1765.78671975
  Solvation  Ediel_sol  =         0.00000000
  ---------------------------------------------------
  free energy    TOTEN  =       -69.23324553 eV

  energy without entropy =      -69.23226518  energy(sigma->0) =      -69.23275536


--------------------------------------------------------------------------------------------------------




--------------------------------------- Iteration      1(   9)  ---------------------------------------


    POTLOK:  cpu time      0.0394: real time      0.0394
    SETDIJ:  cpu time      0.0041: real time      0.0041
     EDDAV:  cpu time      3.8022: real time      3.8023
       DOS:  cpu time      0.0020: real time      0.0020
    CHARGE:  cpu time      0.1920: real time      0.1920
    MIXING:  cpu time      0.0020: real time      0.0020
    --------------------------------------------
      LOOP:  cpu time      4.0417: real time      4.0418

 eigenvalue-minimisations  :  4032
 total energy-change (2. order) :-0.1484189E-03  (-0.3687800E-02)
 number of electron      48.0000012 magnetization 
 augmentation part        0.7917843 magnetization 

 Broyden mixing:
  rms(total) = 0.30779E-01    rms(broyden)= 0.30777E-01
  rms(prec ) = 0.41613E-01
  weight for this iteration     100.00

 eigenvalues of (default mixing * dielectric matrix)
  average eigenvalue GAMMA=   1.5829
  2.2950  1.7778  1.0540  1.2049

 Free energy of the ion-electron system (eV)
  ---------------------------------------------------
  alpha Z        PSCENC =        69.19479570
  Ewald energy   TEWEN  =     -1143.37592847
  -Hartree energ DENC   =      -576.66307820
  -exchange      EXHF   =         0.00000000
  -V(xc)+E(xc)   XCENC  =       157.06315627
  PAW double counting   =      5211.16999585    -5219.79093102
  entropy T*S    EENTRO =        -0.00094324
  eigenvalues    EBANDS =      -332.61718059
  atomic energy  EATOM  =      1765.78671975
  Solvation  Ediel_sol  =         0.00000000
  ---------------------------------------------------
  free energy    TOTEN  =       -69.23339395 eV

  energy without entropy =      -69.23245071  energy(sigma->0) =      -69.23292233


--------------------------------------------------------------------------------------------------------




--------------------------------------- Iteration      1(  10)  ---------------------------------------


    POTLOK:  cpu time      0.0386: real time      0.0386
    SETDIJ:  cpu time      0.0041: real time      0.0041
     EDDAV:  cpu time      4.2414: real time      4.2415
       DOS:  cpu time      0.0020: real time      0.0020
    CHARGE:  cpu time      0.1924: real time      0.1924
    MIXING:  cpu time      0.0021: real time      0.0021
    --------------------------------------------
      LOOP:  cpu time      4.4806: real time      4.4806

 eigenvalue-minimisations  :  4656
 total energy-change (2. order) :-0.1794927E-02  (-0.4263451E-03)
 number of electron      48.0000012 magnetization 
 augmentation part        0.7913918 magnetization 

 Broyden mixing:
  rms(total) = 0.90935E-02    rms(broyden)= 0.90927E-02
  rms(prec ) = 0.14444E-01
  weight for this iteration     100.00

 eigenvalues of (default mixing * dielectric matrix)
  average eigenvalue GAMMA=   1.5524
  2.1472  2.1472  1.0583  1.2047  1.2047

 Free energy of the ion-electron system (eV)
  ---------------------------------------------------
  alpha Z        PSCENC =        69.19479570
  Ewald energy   TEWEN  =     -1143.37592847
  -Hartree energ DENC   =      -576.31738577
  -exchange      EXHF   =         0.00000000
  -V(xc)+E(xc)   XCENC  =       157.05110779
  PAW double counting   =      5281.41800063    -5290.00007049
  entropy T*S    EENTRO =        -0.00092231
  eigenvalues    EBANDS =      -332.99150571
  atomic energy  EATOM  =      1765.78671975
  Solvation  Ediel_sol  =         0.00000000
  ---------------------------------------------------
  free energy    TOTEN  =       -69.23518888 eV

  energy without entropy =      -69.23426657  energy(sigma->0) =      -69.23472772


--------------------------------------------------------------------------------------------------------




--------------------------------------- Iteration      1(  11)  ---------------------------------------


    POTLOK:  cpu time      0.0388: real time      0.0388
    SETDIJ:  cpu time      0.0041: real time      0.0041
     EDDAV:  cpu time      3.9286: real time      3.9286
       DOS:  cpu time      0.0020: real time      0.0020
    CHARGE:  cpu time      0.1927: real time      0.1927
    MIXING:  cpu time      0.0018: real time      0.0018
    --------------------------------------------
      LOOP:  cpu time      4.1679: real time      4.1679

 eigenvalue-minimisations  :  4056
 total energy-change (2. order) :-0.4475064E-03  (-0.9677132E-04)
 number of electron      48.0000012 magnetization 
 augmentation part        0.7916951 magnetization 

 Broyden mixing:
  rms(total) = 0.41850E-02    rms(broyden)= 0.41848E-02
  rms(prec ) = 0.67342E-02
  weight for this iteration     100.00

 eigenvalues of (default mixing * dielectric matrix)
  average eigenvalue GAMMA=   1.6695
  2.6758  2.4116  1.7571  1.1149  1.1149  0.9426

 Free energy of the ion-electron system (eV)
  ---------------------------------------------------
  alpha Z        PSCENC =        69.19479570
  Ewald energy   TEWEN  =     -1143.37592847
  -Hartree energ DENC   =      -576.16821825
  -exchange      EXHF   =         0.00000000
  -V(xc)+E(xc)   XCENC  =       157.04784926
  PAW double counting   =      5281.74681092    -5290.31778493
  entropy T*S    EENTRO =        -0.00091305
  eigenvalues    EBANDS =      -333.14896732
  atomic energy  EATOM  =      1765.78671975
  Solvation  Ediel_sol  =         0.00000000
  ---------------------------------------------------
  free energy    TOTEN  =       -69.23563639 eV

  energy without entropy =      -69.23472334  energy(sigma->0) =      -69.23517986


--------------------------------------------------------------------------------------------------------




--------------------------------------- Iteration      1(  12)  ---------------------------------------


    POTLOK:  cpu time      0.0388: real time      0.0388
    SETDIJ:  cpu time      0.0041: real time      0.0041
     EDDAV:  cpu time      2.8035: real time      2.8036
       DOS:  cpu time      0.0020: real time      0.0020
    --------------------------------------------
      LOOP:  cpu time      2.8484: real time      2.8485

 eigenvalue-minimisations  :  2496
 total energy-change (2. order) :-0.8767761E-04  (-0.1344972E-04)
 number of electron      48.0000012 magnetization 
 augmentation part        0.7916951 magnetization 

 Free energy of the ion-electron system (eV)
  ---------------------------------------------------
  alpha Z        PSCENC =        69.19479570
  Ewald energy   TEWEN  =     -1143.37592847
  -Hartree energ DENC   =      -576.37060391
  -exchange      EXHF   =         0.00000000
  -V(xc)+E(xc)   XCENC  =       157.06374741
  PAW double counting   =      5277.91910891    -5286.49041460
  entropy T*S    EENTRO =        -0.00091159
  eigenvalues    EBANDS =      -332.96223725
  atomic energy  EATOM  =      1765.78671975
  Solvation  Ediel_sol  =         0.00000000
  ---------------------------------------------------
  free energy    TOTEN  =       -69.23572406 eV

  energy without entropy =      -69.23481248  energy(sigma->0) =      -69.23526827


--------------------------------------------------------------------------------------------------------




 average (electrostatic) potential at core
  the test charge radii are     0.6991  0.6991
  (the norm of the test charge is              1.0000)
       1 -53.9581       2 -53.9614       3 -53.9598       4 -53.9621       5 -55.0827
       6 -55.0835       7 -55.0879       8 -55.0866       9 -55.0855      10 -55.0847
      11 -55.0879      12 -55.0876



 E-fermi :  -0.7492     XC(G=0):  -8.4254     alpha+bet : -7.0351

 Fermi energy:        -0.7491917588

 k-point     1 :       0.0000    0.0000    0.0000
  band No.  band energies     occupation 
      1     -16.2857      2.00000
      2     -15.7962      2.00000
      3     -15.7947      2.00000
      4     -15.7930      2.00000
      5     -12.7857      2.00000
      6     -12.7845      2.00000
      7     -12.7810      2.00000
      8     -12.6599      2.00000
      9      -5.2534      2.00000
     10      -5.2499      2.00000
     11      -5.2469      2.00000
     12      -4.4441      2.00000
     13      -4.4400      2.00000
     14      -3.8530      2.00000
     15      -3.8498      2.00000
     16      -3.8448      2.00000
     17      -3.3897      2.00000
     18      -2.2181      2.00000
     19      -2.2151      2.00000
     20      -2.2104      2.00000
     21      -1.3669      1.99999
     22      -1.3610      1.99998
     23      -1.3582      1.99998
     24      -0.9752      1.88993
     25      -0.4772      0.05446
     26      -0.4760      0.05338
     27      -0.4753      0.05275
     28       1.1250      0.00000
     29       1.1292      0.00000
     30       1.1431      0.00000
     31       1.6486      0.00000
     32       1.6503      0.00000

 k-point     2 :       0.2000    0.0000    0.0000
  band No.  band energies     occupation 
      1     -16.2425      2.00000
      2     -15.8458      2.00000
      3     -15.7949      2.00000
      4     -15.7921      2.00000
      5     -12.7804      2.00000
      6     -12.7772      2.00000
      7     -12.7741      2.00000
      8     -12.6726      2.00000
      9      -5.2354      2.00000
     10      -5.2067      2.00000
     11      -5.2013      2.00000
     12      -4.5729      2.00000
     13      -4.4239      2.00000
     14      -4.1801      2.00000
     15      -3.9972      2.00000
     16      -3.9545      2.00000
     17      -2.9639      2.00000
     18      -2.1295      2.00000
     19      -2.1169      2.00000
     20      -2.0786      2.00000
     21      -1.5234      2.00000
     22      -1.4187      2.00000
     23      -1.4113      2.00000
     24      -1.1370      1.99389
     25      -0.2566      0.00050
     26      -0.2369      0.00029
     27      -0.2323      0.00026
     28       1.0961      0.00000
     29       1.0987      0.00000
     30       1.2089      0.00000
     31       1.4565      0.00000
     32       1.6281      0.00000

 k-point     3 :       0.0000    0.2000    0.0000
  band No.  band energies     occupation 
      1     -16.2425      2.00000
      2     -15.8454      2.00000
      3     -15.7943      2.00000
      4     -15.7930      2.00000
      5     -12.7812      2.00000
      6     -12.7796      2.00000
      7     -12.7713      2.00000
      8     -12.6723      2.00000
      9      -5.2334      2.00000
     10      -5.2122      2.00000
     11      -5.1990      2.00000
     12      -4.5713      2.00000
     13      -4.4268      2.00000
     14      -4.1793      2.00000
     15      -3.9892      2.00000
     16      -3.9593      2.00000
     17      -2.9665      2.00000
     18      -2.1234      2.00000
     19      -2.1180      2.00000
     20      -2.0827      2.00000
     21      -1.5298      2.00000
     22      -1.4134      2.00000
     23      -1.4104      2.00000
     24      -1.1355      1.99369
     25      -0.2546      0.00047
     26      -0.2389      0.00031
     27      -0.2327      0.00026
     28       1.0823      0.00000
     29       1.1073      0.00000
     30       1.2128      0.00000
     31       1.4553      0.00000
     32       1.6294      0.00000

 k-point     4 :       0.0000    0.0000    0.2000
  band No.  band energies     occupation 
      1     -16.2426      2.00000
      2     -15.8463      2.00000
      3     -15.7935      2.00000
      4     -15.7929      2.00000
      5     -12.7816      2.00000
      6     -12.7789      2.00000
      7     -12.7715      2.00000
      8     -12.6723      2.00000
      9      -5.2383      2.00000
     10      -5.2092      2.00000
     11      -5.1960      2.00000
     12      -4.5736      2.00000
     13      -4.4239      2.00000
     14      -4.1761      2.00000
     15      -3.9933      2.00000
     16      -3.9617      2.00000
     17      -2.9630      2.00000
     18      -2.1290      2.00000
     19      -2.1124      2.00000
     20      -2.0853      2.00000
     21      -1.5244      2.00000
     22      -1.4180      2.00000
     23      -1.4112      2.00000
     24      -1.1363      1.99380
     25      -0.2573      0.00050
     26      -0.2372      0.00029
     27      -0.2333      0.00026
     28       1.0869      0.00000
     29       1.0934      0.00000
     30       1.2248      0.00000
     31       1.4566      0.00000
     32       1.6291      0.00000

 k-point     5 :       0.4000    0.0000    0.0000
  band No.  band energies     occupation 
      1     -16.1263      2.00000
      2     -15.9750      2.00000
      3     -15.7930      2.00000
      4     -15.7904      2.00000
      5     -12.7738      2.00000
      6     -12.7705      2.00000
      7     -12.7440      2.00000
      8     -12.7051      2.00000
      9      -5.1772      2.00000
     10      -5.1280      2.00000
     11      -5.0732      2.00000
     12      -4.8402      2.00000
     13      -4.4185      2.00000
     14      -4.3437      2.00000
     15      -4.2819      2.00000
     16      -4.1714      2.00000
     17      -2.3883      2.00000
     18      -1.9252      2.00000
     19      -1.9200      2.00000
     20      -1.9008      2.00000
     21      -1.7986      2.00000
     22      -1.5640      2.00000
     23      -1.5331      2.00000
     24      -1.4308      2.00000
     25       0.1823      0.00000
     26       0.1989      0.00000
     27       0.3058      0.00000
     28       0.9437      0.00000
     29       0.9457      0.00000
     30       0.9495      0.00000
     31       1.3907      0.00000
     32       1.5478      0.00000

 k-point     6 :       0.0000    0.4000    0.0000
  band No.  band energies     occupation 
      1     -16.1261      2.00000
      2     -15.9748      2.00000
      3     -15.7925      2.00000
      4     -15.7913      2.00000
      5     -12.7742      2.00000
      6     -12.7729      2.00000
      7     -12.7420      2.00000
      8     -12.7041      2.00000
      9      -5.1773      2.00000
     10      -5.1285      2.00000
     11      -5.0764      2.00000
     12      -4.8407      2.00000
     13      -4.4125      2.00000
     14      -4.3472      2.00000
     15      -4.2739      2.00000
     16      -4.1756      2.00000
     17      -2.3920      2.00000
     18      -1.9212      2.00000
     19      -1.9195      2.00000
     20      -1.9035      2.00000
     21      -1.8029      2.00000
     22      -1.5650      2.00000
     23      -1.5290      2.00000
     24      -1.4275      2.00000
     25       0.1871      0.00000
     26       0.1994      0.00000
     27       0.3035      0.00000
     28       0.9337      0.00000
     29       0.9436      0.00000
     30       0.9512      0.00000
     31       1.3937      0.00000
     32       1.5498      0.00000

 k-point     7 :       0.0000    0.0000    0.4000
  band No.  band energies     occupation 
      1     -16.1264      2.00000
      2     -15.9754      2.00000
      3     -15.7917      2.00000
      4     -15.7912      2.00000
      5     -12.7744      2.00000
      6     -12.7727      2.00000
      7     -12.7422      2.00000
      8     -12.7042      2.00000
      9      -5.1786      2.00000
     10      -5.1262      2.00000
     11      -5.0747      2.00000
     12      -4.8408      2.00000
     13      -4.4133      2.00000
     14      -4.3460      2.00000
     15      -4.2765      2.00000
     16      -4.1763      2.00000
     17      -2.3881      2.00000
     18      -1.9267      2.00000
     19      -1.9175      2.00000
     20      -1.9031      2.00000
     21      -1.8033      2.00000
     22      -1.5702      2.00000
     23      -1.5257      2.00000
     24      -1.4279      2.00000
     25       0.1783      0.00000
     26       0.1934      0.00000
     27       0.3059      0.00000
     28       0.9407      0.00000
     29       0.9446      0.00000
     30       0.9493      0.00000
     31       1.4011      0.00000
     32       1.5526      0.00000

 k-point     8 :       0.2000    0.2000    0.0000
  band No.  band energies     occupation 
      1     -16.2025      2.00000
      2     -15.8397      2.00000
      3     -15.8390      2.00000
      4     -15.7975      2.00000
      5     -12.7795      2.00000
      6     -12.7723      2.00000
      7     -12.7664      2.00000
      8     -12.6841      2.00000
      9      -5.3042      2.00000
     10      -5.2173      2.00000
     11      -5.0348      2.00000
     12      -4.6506      2.00000
     13      -4.4662      2.00000
     14      -4.4469      2.00000
     15      -3.9948      2.00000
     16      -3.9283      2.00000
     17      -2.7752      2.00000
     18      -2.0853      2.00000
     19      -2.0073      2.00000
     20      -1.9988      2.00000
     21      -1.5860      2.00000
     22      -1.5579      2.00000
     23      -1.4121      2.00000
     24      -1.2245      1.99922
     25      -0.0849      0.00000
     26      -0.0614      0.00000
     27      -0.0422      0.00000
     28       1.0759      0.00000
     29       1.1476      0.00000
     30       1.1555      0.00000
     31       1.3897      0.00000
     32       1.5095      0.00000

 k-point     9 :       0.0000    0.2000    0.2000
  band No.  band energies     occupation 
      1     -16.2025      2.00000
      2     -15.8410      2.00000
      3     -15.8381      2.00000
      4     -15.7971      2.00000
      5     -12.7794      2.00000
      6     -12.7708      2.00000
      7     -12.7680      2.00000
      8     -12.6840      2.00000
      9      -5.3026      2.00000
     10      -5.2212      2.00000
     11      -5.0331      2.00000
     12      -4.6517      2.00000
     13      -4.4668      2.00000
     14      -4.4433      2.00000
     15      -3.9979      2.00000
     16      -3.9256      2.00000
     17      -2.7752      2.00000
     18      -2.0806      2.00000
     19      -2.0120      2.00000
     20      -2.0011      2.00000
     21      -1.5910      2.00000
     22      -1.5526      2.00000
     23      -1.4119      2.00000
     24      -1.2239      1.99921
     25      -0.0846      0.00000
     26      -0.0642      0.00000
     27      -0.0419      0.00000
     28       1.0637      0.00000
     29       1.1518      0.00000
     30       1.1653      0.00000
     31       1.3909      0.00000
     32       1.5087      0.00000

 k-point    10 :       0.2000    0.0000    0.2000
  band No.  band energies     occupation 
      1     -16.2026      2.00000
      2     -15.8403      2.00000
      3     -15.8391      2.00000
      4     -15.7967      2.00000
      5     -12.7785      2.00000
      6     -12.7701      2.00000
      7     -12.7694      2.00000
      8     -12.6842      2.00000
      9      -5.3040      2.00000
     10      -5.2187      2.00000
     11      -5.0333      2.00000
     12      -4.6543      2.00000
     13      -4.4634      2.00000
     14      -4.4442      2.00000
     15      -4.0008      2.00000
     16      -3.9243      2.00000
     17      -2.7738      2.00000
     18      -2.0799      2.00000
     19      -2.0137      2.00000
     20      -2.0015      2.00000
     21      -1.5873      2.00000
     22      -1.5509      2.00000
     23      -1.4166      2.00000
     24      -1.2244      1.99922
     25      -0.0851      0.00000
     26      -0.0625      0.00000
     27      -0.0433      0.00000
     28       1.0664      0.00000
     29       1.1539      0.00000
     30       1.1617      0.00000
     31       1.3923      0.00000
     32       1.5074      0.00000

 k-point    11 :      -0.2000    0.2000    0.0000
  band No.  band energies     occupation 
      1     -16.2025      2.00000
      2     -15.8396      2.00000
      3     -15.8391      2.00000
      4     -15.7975      2.00000
      5     -12.7771      2.00000
      6     -12.7719      2.00000
      7     -12.7689      2.00000
      8     -12.6843      2.00000
      9      -5.3049      2.00000
     10      -5.2165      2.00000
     11      -5.0346      2.00000
     12      -4.6519      2.00000
     13      -4.4656      2.00000
     14      -4.4457      2.00000
     15      -3.9949      2.00000
     16      -3.9284      2.00000
     17      -2.7761      2.00000
     18      -2.0838      2.00000
     19      -2.0077      2.00000
     20      -2.0022      2.00000
     21      -1.5878      2.00000
     22      -1.5569      2.00000
     23      -1.4098      2.00000
     24      -1.2240      1.99921
     25      -0.0846      0.00000
     26      -0.0607      0.00000
     27      -0.0434      0.00000
     28       1.0763      0.00000
     29       1.1475      0.00000
     30       1.1565      0.00000
     31       1.3897      0.00000
     32       1.5090      0.00000

 k-point    12 :      -0.2000    0.0000    0.2000
  band No.  band energies     occupation 
      1     -16.2026      2.00000
      2     -15.8405      2.00000
      3     -15.8390      2.00000
      4     -15.7967      2.00000
      5     -12.7789      2.00000
      6     -12.7710      2.00000
      7     -12.7681      2.00000
      8     -12.6842      2.00000
      9      -5.3037      2.00000
     10      -5.2190      2.00000
     11      -5.0335      2.00000
     12      -4.6538      2.00000
     13      -4.4636      2.00000
     14      -4.4446      2.00000
     15      -4.0009      2.00000
     16      -3.9244      2.00000
     17      -2.7732      2.00000
     18      -2.0798      2.00000
     19      -2.0135      2.00000
     20      -2.0004      2.00000
     21      -1.5869      2.00000
     22      -1.5513      2.00000
     23      -1.4174      2.00000
     24      -1.2251      1.99923
     25      -0.0854      0.00000
     26      -0.0627      0.00000
     27      -0.0427      0.00000
     28       1.0664      0.00000
     29       1.1535      0.00000
     30       1.1617      0.00000
     31       1.3921      0.00000
     32       1.5077      0.00000

 k-point    13 :       0.0000   -0.2000    0.2000
  band No.  band energies     occupation 
      1     -16.2025      2.00000
      2     -15.8410      2.00000
      3     -15.8381      2.00000
      4     -15.7971      2.00000
      5     -12.7802      2.00000
      6     -12.7708      2.00000
      7     -12.7673      2.00000
      8     -12.6839      2.00000
      9      -5.3025      2.00000
     10      -5.2213      2.00000
     11      -5.0330      2.00000
     12      -4.6514      2.00000
     13      -4.4671      2.00000
     14      -4.4436      2.00000
     15      -3.9978      2.00000
     16      -3.9254      2.00000
     17      -2.7753      2.00000
     18      -2.0815      2.00000
     19      -2.0119      2.00000
     20      -2.0003      2.00000
     21      -1.5904      2.00000
     22      -1.5529      2.00000
     23      -1.4125      2.00000
     24      -1.2236      1.99920
     25      -0.0843      0.00000
     26      -0.0645      0.00000
     27      -0.0418      0.00000
     28       1.0634      0.00000
     29       1.1519      0.00000
     30       1.1652      0.00000
     31       1.3910      0.00000
     32       1.5087      0.00000

 k-point    14 :       0.4000    0.2000    0.0000
  band No.  band energies     occupation 
      1     -16.0950      2.00000
      2     -15.9566      2.00000
      3     -15.8243      2.00000
      4     -15.8082      2.00000
      5     -12.7730      2.00000
      6     -12.7645      2.00000
      7     -12.7476      2.00000
      8     -12.7136      2.00000
      9      -5.2573      2.00000
     10      -5.1297      2.00000
     11      -5.0770      2.00000
     12      -4.9251      2.00000
     13      -4.4680      2.00000
     14      -4.3257      2.00000
     15      -4.1702      2.00000
     16      -4.1286      2.00000
     17      -2.3387      2.00000
     18      -1.9466      2.00000
     19      -1.9161      2.00000
     20      -1.8673      2.00000
     21      -1.7586      2.00000
     22      -1.5986      2.00000
     23      -1.5399      2.00000
     24      -1.4430      2.00000
     25       0.2641      0.00000
     26       0.3223      0.00000
     27       0.4048      0.00000
     28       0.9570      0.00000
     29       0.9653      0.00000
     30       0.9683      0.00000
     31       1.2935      0.00000
     32       1.4203      0.00000

 k-point    15 :       0.0000    0.4000    0.2000
  band No.  band energies     occupation 
      1     -16.0949      2.00000
      2     -15.9564      2.00000
      3     -15.8246      2.00000
      4     -15.8082      2.00000
      5     -12.7723      2.00000
      6     -12.7676      2.00000
      7     -12.7457      2.00000
      8     -12.7130      2.00000
      9      -5.2576      2.00000
[...]
  188        fordep                                0.002945                            1   3
  189          setdij_                               0.002938                          6   4
  190            m_sumb_d                              0.000055                        6   5
  191        setdij_                               0.009603                           20   3
  192          m_sumb_d                              0.000165                         20   4
  193        set_dd_magatom                        0.000000                            1   3
  194        set_dd_paw                            0.003533                            1   3
  195          m_sumb_d                              0.000010                          7   4
  196        strkin                                0.027683                            1   3
  197          m_sumb_d                              0.000010                          1   4
  198        strelo                                0.004222                            1   3
  199          m_sumb_d                              0.000005                          2   4
  200        strenl                                3.935498                            1   3
  201          spher                                 1.404097                         19   4
  202          phase                                 0.815260                        567   4
  203          proj1                                 1.699844                       9072   4
  204            crexp_mul_wave                        0.559448                   108864   5
  205          m_sumb_d                              0.000009                          1   4
  206        fft3d_mpi                             0.009047                           11   3
  207          fftbrc_mpi                            0.008364                         11   4
  208            fftbas_plan_mpi                       0.008363                       11   5
  209              dfftw_execute                         0.003827                     33   6
  210              map_forward                           0.001974                     10   6
  211                map_gather                            0.000763                    5   7
  212                m_alltoallv_z                         0.000581                    5   7
  213                map_scatter                           0.000624                    5   7
  214              map_backward                          0.002170                     12   6
  215                map_gather                            0.000787                    6   7
  216                m_alltoallv_z                         0.000840                    6   7
  217                map_scatter                           0.000532                    6   7
  218        ggaall_grid                           0.013048                            1   3
  219        m_sumb_d                              0.000013                            5   3
  220        forhar                                0.014365                            2   3
  221          m_sumb_d                              0.000168                          2   4
  222        strehar                               0.005716                            1   3
  223          m_sumb_d                              0.000004                          1   4
  224        chggra                                0.007153                            1   3
  225          fft3d_mpi                             0.002341                          3   4
  226            fftbrc_mpi                            0.002185                        3   5
  227              fftbas_plan_mpi                       0.002184                      3   6
  228                dfftw_execute                         0.001023                    9   7
  229                map_backward                          0.000281                    2   7
  230                  map_gather                            0.000107                  1   8
  231                  m_alltoallv_z                         0.000090                  1   8
  232                  map_scatter                           0.000083                  1   8
  233                map_forward                           0.000772                    4   7
  234                  map_gather                            0.000271                  2   8
  235                  m_alltoallv_z                         0.000255                  2   8
  236                  map_scatter                           0.000241                  2   8
  237          m_sumb_d                              0.000001                          2   4
  238          pothar                                0.000790                          1   4
  239            m_sumb_d                              0.000005                        1   5
  240        brmix                                 0.001917                            1   3
  241          m_sumb_d                              0.000009                          6   4
  242          brpre                                 0.000050                          1   4
  243          setg0                                 0.000781                          1   4
  244          broyd                                 0.000502                          1   4
  245            m_sumb_d                              0.000010                       14   5
  246            brget                                 0.000145                       44   5
  247            brsav                                 0.000038                       12   5
  248        m_bcast_d                             0.000005                            2   3
  249      potlok                                0.038458                              1   2
  250        fft3d_mpi                             0.010192                           13   3
  251          fftbrc_mpi                            0.009310                         13   4
  252            fftbas_plan_mpi                       0.009306                       13   5
  253              dfftw_execute                         0.004288                     39   6
  254              map_forward                           0.002365                     14   6
  255                map_gather                            0.000794                    8   7
  256                m_alltoallv_z                         0.000802                    8   7
  257                map_scatter                           0.000759                    8   7
  258              map_backward                          0.002199                     12   6
  259                map_gather                            0.000803                    6   7
  260                m_alltoallv_z                         0.000852                    6   7
  261                map_scatter                           0.000536                    6   7
  262        ggaall_grid                           0.013187                            1   3
  263        m_sumb_d                              0.000021                            5   3
  264        pothar                                0.000515                            1   3
  265          m_sumb_d                              0.000005                          1   4
  266        m_bcast_d                             0.000098                            1   3
  267      potlok_metagga                        0.000000                              1   2
  268      set_dd_magatom                        0.000000                              1   2
  269      set_dd_paw                            0.003583                              1   2
  270        m_sumb_d                              0.000017                            7   3
  271      densta                                0.001916                              1   2
  272        m_sumb_d                              0.000046                           31   3
 
 Flat profile
 ============
 
             routine name                   CPU           calls
 ---------------------------------------------------------------
 fft3d                                  14.904623       82414
 gemm                                    6.020513      455232
 proj1                                   4.567596       35920
 orth1                                   4.329533       28515
 work_mul_crexp                          3.144552      455232
 vhamil                                  3.054870       37936
 total_time                              2.455974           1
 ggemm                                   2.422277       12508
 fornl                                   2.386487           1
 crexp_mul_wave                          2.377477      431040
 fftwav                                  2.213283       44478
 phase                                   2.101391        1450
 spher                                   1.489119          20
 m_alltoall_d                            1.425880      282688
 lapack                                  1.188677        9484
 eddav                                   0.685836          12
 eccp                                    0.661188       12096
 w1_copy                                 0.598609      113808
 lincom                                  0.464763         819
 redis_pw                                0.376539      103350
 pdssyex_zheevx                          0.323390         756
 kinhamil                                0.301480       37936
 hamiltmu                                0.282686        9484
 fftext_mpi                              0.233894       37936
 pw_charge                               0.225967        6542
 m_sumb_d                                0.223475       32944
 apply_precond                           0.198985       25840
 vnlac0                                  0.191041       37936
 setup_precond                           0.173002       12096
 m_bcast_z                               0.147945       11500
 potlok                                  0.132738           9
 ggaall_grid                             0.130740          10
 overl                                   0.070059       63839
 overl1                                  0.065825       37936
 redis_proj                              0.052682      129253
 dfftw_execute                           0.047140         450
 set_dd_paw                              0.035378          10
 newband                                 0.031092       10240
 strkin                                  0.027673           1
 densta                                  0.022662          13
 m_bcast_d                               0.022339       18982
 fft3d_mpi                               0.022162       38086
 m_alltoallv_z                           0.020742         167
 map_gather                              0.018946         167
 setdij_                                 0.017339          36
 strenl                                  0.016288           1
 map_scatter                             0.014475         167
 forhar                                  0.014197           2
 w1_projall                              0.013902        6460
 force_and_stress                        0.012120           1
 fftwav_mpi                              0.011971       44478
 setg0                                   0.008051           9
 elmin                                   0.008039           1
 augmentation_charge                     0.006702           8
 forloc                                  0.006213           1
 strehar                                 0.005712           1
 fftbas_plan_mpi                         0.005116         150
 inisym                                  0.005019           1
 pothar                                  0.004969          10
 depsum                                  0.004942           8
 soft_charge                             0.004733           8
 brmix                                   0.004455           8
 strelo                                  0.004217           1
 chggra                                  0.004021           1
 stufak                                  0.003611           1
 truncate_high_frequency_w1              0.003076       50032
 broyd                                   0.001286           8
 set_charge                              0.001040           8
 choleski                                0.000772          63
 brget                                   0.000666         206
 rsp                                     0.000665           1
 proj                                    0.000409          63
 brpre                                   0.000401           8
 fewald                                  0.000317           1
 brsav                                   0.000213          69
 orthch                                  0.000193           1
 brgrid                                  0.000158           1
 fft_gq                                  0.000145           8
 map_forward                             0.000125         146
 map_backward                            0.000106         154
 proall                                  0.000048           1
 rcp                                     0.000030           1
 fftbrc_mpi                              0.000029         150
 crpa_reader                             0.000016           1
 fordep                                  0.000007           1
 posmap                                  0.000006           2
 vectorpot                               0.000003           9
 FERMAT_RAZOR                            0.000001           1
 set_dd_magatom                          0.000001          10
 potlok_metagga                          0.000000           9
 rotate_active_occupied_orbital          0.000000           1
 redis_pw_over_bands                     0.000000           1
 ---------------------------------------------------------------
  summed up times    60.057034969329834     
 
 Accumulative profile
 ====================
 
             routine name                   CPU           calls
 ---------------------------------------------------------------
 total_time                             60.057035           1
 elmin                                  50.242972           1
 eddav                                  48.531040          12
 hamiltmu                               20.460566        9484
 fft3d                                  14.904623       82414
 fftwav_mpi                              9.976307       44478
 fftwav                                  9.964336       44478
 vnlac0                                  9.356106       37936
 kinhamil                                7.701079       37936
 fftext_mpi                              7.399599       37936
 fft3d_mpi                               7.282410       38086
 proj1                                   6.945073       35920
 force_and_stress                        6.722173           1
 gemm                                    6.020513      455232
 w1_projall                              5.070700        6460
 orth1                                   4.329533       28515
 newband                                 3.996722       10240
 strenl                                  3.935498           1
 work_mul_crexp                          3.144552      455232
 vhamil                                  3.054870       37936
 fornl                                   2.477495           1
 ggemm                                   2.422277       12508
 crexp_mul_wave                          2.377477      431040
 phase                                   2.101391        1450
 redis_pw                                1.576331      103350
 set_charge                              1.518773           8
 soft_charge                             1.498042           8
 spher                                   1.489119          20
 m_alltoall_d                            1.425880      282688
 lapack                                  1.188677        9484
 eccp                                    0.661188       12096
 w1_copy                                 0.598609      113808
 lincom                                  0.464763         819
 potlok                                  0.347906           9
 pdssyex_zheevx                          0.323391         756
 proall                                  0.280111           1
 redis_proj                              0.278770      129253
 pw_charge                               0.225967        6542
 m_sumb_d                                0.223475       32944
 apply_precond                           0.198985       25840
 proj                                    0.188841          63
 setup_precond                           0.173002       12096
 m_bcast_z                               0.147945       11500
 ggaall_grid                             0.130740          10
 fftbrc_mpi                              0.106678         150
 fftbas_plan_mpi                         0.106649         150
 orthch                                  0.083349           1
 overl                                   0.070059       63839
 overl1                                  0.065825       37936
 dfftw_execute                           0.047140         450
 set_dd_paw                              0.035607          10
 strkin                                  0.027683           1
 map_backward                            0.027258         154
 map_forward                             0.027135         146
 densta                                  0.023063          13
 m_bcast_d                               0.022339       18982
 m_alltoallv_z                           0.020742         167
 map_gather                              0.018946         167
 setdij_                                 0.017718          36
 brmix                                   0.015213           8
 augmentation_charge                     0.014691           8
 map_scatter                             0.014475         167
 forhar                                  0.014365           2
 setg0                                   0.008051           9
 chggra                                  0.007153           1
 forloc                                  0.006218           1
 strehar                                 0.005716           1
 pothar                                  0.005042          10
 inisym                                  0.005025           1
 depsum                                  0.005000           8
 strelo                                  0.004222           1
 stufak                                  0.003611           1
 truncate_high_frequency_w1              0.003076       50032
 fordep                                  0.002945           1
 fft_gq                                  0.002239           8
 broyd                                   0.002216           8
 fewald                                  0.001027           1
 choleski                                0.000772          63
 brget                                   0.000666         206
 rsp                                     0.000665           1
 brpre                                   0.000401           8
 brsav                                   0.000213          69
 brgrid                                  0.000158           1
 rcp                                     0.000030           1
 crpa_reader                             0.000016           1
 posmap                                  0.000006           2
 vectorpot                               0.000003           9
 FERMAT_RAZOR                            0.000001           1
 set_dd_magatom                          0.000001          10
 potlok_metagga                          0.000000           9
 rotate_active_occupied_orbital          0.000000           1
 redis_pw_over_bands                     0.000000           1
 ---------------------------------------------------------------
 
Profiling took   0.265424  0.130914  0.002140  0.002100 seconds
Profiling took   0.196091 seconds
