<?xml version="1.0" encoding="ISO-8859-1"?>
<modeling>
 <generator>
  <i name="program" type="string">vasp </i>
  <i name="version" type="string">6.3.0  </i>
  <i name="subversion" type="string">20Jan22 (build Oct  7 2022 22:46:23) complex                          parallel </i>
  <i name="platform" type="string">LinuxGNU </i>
  <i name="date" type="string">2025 04 23 </i>
  <i name="time" type="string">14:53:42 </i>
 </generator>
 <incar>
  <i type="string" name="SYSTEM">CO2 crystal - PBE</i>
  <i type="string" name="PREC">Normal</i>
  <i type="int" name="IBRION">    -1</i>
  <i name="ENCUT">    520.00000000</i>
  <i type="int" name="ISMEAR">     0</i>
  <i type="string" name="GGA">PE</i>
 </incar>
 <primitive_cell>
  <structure name="primitive_cell" >
   <crystal>
    <varray name="basis" >
     <v>       5.55000135       0.00000000       0.00000000 </v>
     <v>       0.00000000       5.55000135       0.00000000 </v>
     <v>       0.00000000       0.00000000       5.55000135 </v>
    </varray>
    <i name="volume">    170.95400000 </i>
    <varray name="rec_basis" >
     <v>       0.18018014       0.00000000       0.00000000 </v>
     <v>       0.00000000       0.18018014       0.00000000 </v>
     <v>       0.00000000       0.00000000       0.18018014 </v>
    </varray>
   </crystal>
   <varray name="positions" >
    <v>       0.00015993       0.00023419       0.00000559 </v>
    <v>       0.49992225       0.99971461       0.50008182 </v>
    <v>       0.00016658       0.50047013       0.50009409 </v>
    <v>       0.50040726       0.49974500       0.00032315 </v>
    <v>       0.87858184       0.87807629       0.12113507 </v>
    <v>       0.12174634       0.12238626       0.87887991 </v>
    <v>       0.62150582       0.87776879       0.62141395 </v>
    <v>       0.37835823       0.12167251       0.37874238 </v>
    <v>       0.12166629       0.62283988       0.62108541 </v>
    <v>       0.87867452       0.37809371       0.37910556 </v>
    <v>       0.62209134       0.37783887       0.87905199 </v>
    <v>       0.37871961       0.62165978       0.12158108 </v>
   </varray>
  </structure>
  <varray name="primitive_index" >
   <v type="int" >        1 </v>
   <v type="int" >        2 </v>
   <v type="int" >        3 </v>
   <v type="int" >        4 </v>
   <v type="int" >        5 </v>
   <v type="int" >        6 </v>
   <v type="int" >        7 </v>
   <v type="int" >        8 </v>
   <v type="int" >        9 </v>
   <v type="int" >       10 </v>
   <v type="int" >       11 </v>
   <v type="int" >       12 </v>
  </varray>
 </primitive_cell>
 <kpoints>
  <generation param="Monkhorst-Pack">
   <v type="int" name="divisions">       5        5        5 </v>
   <v name="usershift">      0.00000000       0.00000000       0.00000000 </v>
   <v name="genvec1">      0.20000000       0.00000000       0.00000000 </v>
   <v name="genvec2">      0.00000000       0.20000000       0.00000000 </v>
   <v name="genvec3">      0.00000000       0.00000000       0.20000000 </v>
   <v name="shift">      0.00000000       0.00000000       0.00000000 </v>
  </generation>
  <varray name="kpointlist" >
   <v>       0.00000000       0.00000000       0.00000000 </v>
   <v>       0.20000000       0.00000000       0.00000000 </v>
   <v>       0.00000000       0.20000000       0.00000000 </v>
   <v>       0.00000000       0.00000000       0.20000000 </v>
   <v>       0.40000000       0.00000000       0.00000000 </v>
   <v>       0.00000000       0.40000000       0.00000000 </v>
   <v>       0.00000000       0.00000000       0.40000000 </v>
   <v>       0.20000000       0.20000000       0.00000000 </v>
   <v>       0.00000000       0.20000000       0.20000000 </v>
   <v>       0.20000000       0.00000000       0.20000000 </v>
   <v>      -0.20000000       0.20000000       0.00000000 </v>
   <v>      -0.20000000       0.00000000       0.20000000 </v>
   <v>       0.00000000      -0.20000000       0.20000000 </v>
   <v>       0.40000000       0.20000000       0.00000000 </v>
   <v>       0.00000000       0.40000000       0.20000000 </v>
   <v>       0.20000000       0.00000000       0.40000000 </v>
   <v>      -0.20000000       0.40000000       0.00000000 </v>
   <v>      -0.40000000       0.00000000       0.20000000 </v>
   <v>       0.00000000       0.20000000       0.40000000 </v>
   <v>       0.00000000      -0.40000000       0.20000000 </v>
   <v>      -0.20000000       0.00000000       0.40000000 </v>
   <v>       0.40000000       0.00000000       0.20000000 </v>
   <v>       0.00000000      -0.20000000       0.40000000 </v>
   <v>       0.40000000      -0.20000000       0.00000000 </v>
   <v>       0.20000000       0.40000000       0.00000000 </v>
   <v>       0.40000000       0.40000000       0.00000000 </v>
   <v>       0.00000000       0.40000000       0.40000000 </v>
   <v>       0.40000000       0.00000000       0.40000000 </v>
   <v>      -0.40000000       0.40000000       0.00000000 </v>
   <v>      -0.40000000       0.00000000       0.40000000 </v>
   <v>       0.00000000      -0.40000000       0.40000000 </v>
   <v>       0.20000000       0.20000000       0.20000000 </v>
   <v>      -0.20000000       0.20000000       0.20000000 </v>
   <v>      -0.20000000      -0.20000000       0.20000000 </v>
   <v>       0.20000000      -0.20000000       0.20000000 </v>
   <v>       0.40000000       0.20000000       0.20000000 </v>
   <v>       0.20000000       0.40000000       0.20000000 </v>
   <v>       0.20000000       0.20000000       0.40000000 </v>
   <v>      -0.20000000       0.40000000       0.20000000 </v>
   <v>      -0.40000000       0.20000000       0.20000000 </v>
   <v>      -0.20000000       0.20000000       0.40000000 </v>
   <v>      -0.40000000      -0.20000000       0.20000000 </v>
   <v>      -0.20000000      -0.40000000       0.20000000 </v>
   <v>      -0.20000000      -0.20000000       0.40000000 </v>
   <v>       0.20000000      -0.40000000       0.20000000 </v>
   <v>       0.40000000      -0.20000000       0.20000000 </v>
   <v>       0.20000000      -0.20000000       0.40000000 </v>
   <v>       0.40000000       0.40000000       0.20000000 </v>
   <v>       0.20000000       0.40000000       0.40000000 </v>
   <v>       0.40000000       0.20000000       0.40000000 </v>
   <v>      -0.40000000       0.40000000       0.20000000 </v>
   <v>      -0.40000000       0.20000000       0.40000000 </v>
   <v>      -0.20000000       0.40000000       0.40000000 </v>
   <v>      -0.40000000      -0.40000000       0.20000000 </v>
   <v>      -0.20000000      -0.40000000       0.40000000 </v>
   <v>      -0.40000000      -0.20000000       0.40000000 </v>
   <v>       0.40000000      -0.40000000       0.20000000 </v>
   <v>       0.40000000      -0.20000000       0.40000000 </v>
   <v>       0.20000000      -0.40000000       0.40000000 </v>
   <v>       0.40000000       0.40000000       0.40000000 </v>
   <v>      -0.40000000       0.40000000       0.40000000 </v>
   <v>      -0.40000000      -0.40000000       0.40000000 </v>
   <v>       0.40000000      -0.40000000       0.40000000 </v>
  </varray>
  <varray name="weights" >
   <v>       0.00800000 </v>
   <v>       0.01600000 </v>
   <v>       0.01600000 </v>
   <v>       0.01600000 </v>
   <v>       0.01600000 </v>
   <v>       0.01600000 </v>
   <v>       0.01600000 </v>
   <v>       0.01600000 </v>
   <v>       0.01600000 </v>
   <v>       0.01600000 </v>
   <v>       0.01600000 </v>
   <v>       0.01600000 </v>
   <v>       0.01600000 </v>
   <v>       0.01600000 </v>
   <v>       0.01600000 </v>
   <v>       0.01600000 </v>
   <v>       0.01600000 </v>
   <v>       0.01600000 </v>
   <v>       0.01600000 </v>
   <v>       0.01600000 </v>
   <v>       0.01600000 </v>
   <v>       0.01600000 </v>
   <v>       0.01600000 </v>
   <v>       0.01600000 </v>
   <v>       0.01600000 </v>
   <v>       0.01600000 </v>
   <v>       0.01600000 </v>
   <v>       0.01600000 </v>
   <v>       0.01600000 </v>
   <v>       0.01600000 </v>
   <v>       0.01600000 </v>
   <v>       0.01600000 </v>
   <v>       0.01600000 </v>
   <v>       0.01600000 </v>
   <v>       0.01600000 </v>
   <v>       0.01600000 </v>
   <v>       0.01600000 </v>
   <v>       0.01600000 </v>
   <v>       0.01600000 </v>
   <v>       0.01600000 </v>
   <v>       0.01600000 </v>
   <v>       0.01600000 </v>
   <v>       0.01600000 </v>
   <v>       0.01600000 </v>
   <v>       0.01600000 </v>
   <v>       0.01600000 </v>
   <v>       0.01600000 </v>
   <v>       0.01600000 </v>
   <v>       0.01600000 </v>
   <v>       0.01600000 </v>
   <v>       0.01600000 </v>
   <v>       0.01600000 </v>
   <v>       0.01600000 </v>
   <v>       0.01600000 </v>
   <v>       0.01600000 </v>
   <v>       0.01600000 </v>
   <v>       0.01600000 </v>
   <v>       0.01600000 </v>
   <v>       0.01600000 </v>
   <v>       0.01600000 </v>
   <v>       0.01600000 </v>
   <v>       0.01600000 </v>
   <v>       0.01600000 </v>
  </varray>
 </kpoints>
 <parameters>
  <separator name="general" >
   <i type="string" name="SYSTEM">CO2 crystal - PBE</i>
   <i type="logical" name="LCOMPAT"> F  </i>
  </separator>
  <separator name="electronic" >
   <i type="string" name="PREC">normal</i>
   <i name="ENMAX">    520.00000000</i>
   <i name="ENAUG">    644.87300000</i>
   <i name="EDIFF">      0.00010000</i>
   <i type="int" name="IALGO">    38</i>
   <i type="int" name="IWAVPR">    10</i>
   <i type="int" name="NBANDS">    32</i>
   <i type="int" name="NBANDSLOW">    -1</i>
   <i type="int" name="NBANDSHIGH">    -1</i>
   <i name="NELECT">     48.00000000</i>
   <i type="int" name="TURBO">     0</i>
   <i type="int" name="IRESTART">     0</i>
   <i type="int" name="NREBOOT">     0</i>
   <i type="int" name="NMIN">     0</i>
   <i name="EREF">      0.00000000</i>
   <separator name="electronic smearing" >
    <i type="int" name="ISMEAR">     0</i>
    <i name="SIGMA">      0.20000000</i>
    <i name="KSPACING">      0.50000000</i>
    <i type="logical" name="KGAMMA"> T  </i>
    <i type="logical" name="KBLOWUP"> T  </i>
   </separator>
   <separator name="electronic projectors" >
    <i type="logical" name="LREAL"> F  </i>
    <v name="ROPT">      0.00000000      0.00000000</v>
    <i type="int" name="LMAXPAW">  -100</i>
    <i type="int" name="LMAXMIX">     2</i>
    <i type="logical" name="NLSPLINE"> F  </i>
   </separator>
   <separator name="electronic startup" >
    <i type="int" name="ISTART">     0</i>
    <i type="int" name="ICHARG">     2</i>
    <i type="int" name="INIWAV">     1</i>
   </separator>
   <separator name="electronic spin" >
    <i type="int" name="ISPIN">     1</i>
    <i type="logical" name="LNONCOLLINEAR"> F  </i>
    <v name="MAGMOM">      1.00000000      1.00000000      1.00000000      1.00000000      1.00000000      1.00000000      1.00000000      1.00000000      1.00000000      1.00000000      1.00000000      1.00000000</v>
    <i name="NUPDOWN">     -1.00000000</i>
    <i type="logical" name="LSORBIT"> F  </i>
    <v name="SAXIS">      0.00000000      0.00000000      1.00000000</v>
    <i type="logical" name="LSPIRAL"> F  </i>
    <v name="QSPIRAL">      0.00000000      0.00000000      0.00000000</v>
    <i type="logical" name="LZEROZ"> F  </i>
   </separator>
   <separator name="electronic exchange-correlation" >
    <i type="logical" name="LASPH"> F  </i>
    <i type="logical" name="LMETAGGA"> F  </i>
   </separator>
   <separator name="electronic convergence" >
    <i type="int" name="NELM">    60</i>
    <i type="int" name="NELMDL">    -5</i>
    <i type="int" name="NELMIN">     2</i>
    <i name="ENINI">    520.00000000</i>
    <separator name="electronic convergence detail" >
     <i type="logical" name="LDIAG"> T  </i>
     <i type="logical" name="LSUBROT"> F  </i>
     <i name="WEIMIN">      0.00000000</i>
     <i name="EBREAK">      0.00000078</i>
     <i name="DEPER">      0.30000000</i>
     <i type="int" name="NRMM">     4</i>
     <i name="TIME">      0.40000000</i>
    </separator>
   </separator>
   <separator name="electronic mixer" >
    <i name="AMIX">      0.40000000</i>
    <i name="BMIX">      1.00000000</i>
    <i name="AMIN">      0.10000000</i>
    <i name="AMIX_MAG">      1.60000000</i>
    <i name="BMIX_MAG">      1.00000000</i>
    <separator name="electronic mixer details" >
     <i type="int" name="IMIX">     4</i>
     <i type="logical" name="MIXFIRST"> F  </i>
     <i type="int" name="MAXMIX">   -45</i>
     <i name="WC">    100.00000000</i>
     <i type="int" name="INIMIX">     1</i>
     <i type="int" name="MIXPRE">     1</i>
     <i type="int" name="MREMOVE">     5</i>
    </separator>
   </separator>
   <separator name="electronic dipolcorrection" >
    <i type="logical" name="LDIPOL"> F  </i>
    <i type="logical" name="LMONO"> F  </i>
    <i type="int" name="IDIPOL">     0</i>
    <i name="EPSILON">      1.00000000</i>
    <v name="DIPOL">   -100.00000000   -100.00000000   -100.00000000</v>
    <i name="EFIELD">      0.00000000</i>
   </separator>
  </separator>
  <separator name="grids" >
   <i type="int" name="NGX">    32</i>
   <i type="int" name="NGY">    32</i>
   <i type="int" name="NGZ">    32</i>
   <i type="int" name="NGXF">    64</i>
   <i type="int" name="NGYF">    64</i>
   <i type="int" name="NGZF">    64</i>
   <i type="logical" name="ADDGRID"> F  </i>
  </separator>
  <separator name="ionic" >
   <i type="int" name="NSW">     0</i>
   <i type="int" name="IBRION">    -1</i>
   <i type="int" name="MDALGO">     0</i>
   <i type="int" name="ISIF">     2</i>
   <i name="PSTRESS">      0.00000000</i>
   <i name="EDIFFG">      0.00100000</i>
   <i type="int" name="NFREE">     0</i>
   <i name="POTIM">      0.50000000</i>
   <i name="SMASS">     -3.00000000</i>
   <i name="SCALEE">      1.00000000</i>
  </separator>
  <separator name="ionic md" >
   <i name="TEBEG">      0.00010000</i>
   <i name="TEEND">      0.00010000</i>
   <i type="int" name="NBLOCK">     1</i>
   <i type="int" name="KBLOCK">     1</i>
   <i type="int" name="NPACO">   256</i>
   <i name="APACO">     10.00000000</i>
  </separator>
  <separator name="symmetry" >
   <i type="int" name="ISYM">     2</i>
   <i name="SYMPREC">      0.00001000</i>
  </separator>
  <separator name="dos" >
   <i type="int" name="LORBIT">     0</i>
   <v name="RWIGS">     -1.00000000     -1.00000000</v>
   <i type="int" name="NEDOS">   301</i>
   <i name="EMIN">     10.00000000</i>
   <i name="EMAX">    -10.00000000</i>
   <i name="EFERMI">      0.00000000</i>
  </separator>
  <separator name="writing" >
   <i type="int" name="NWRITE">     2</i>
   <i type="logical" name="LWAVE"> T  </i>
   <i type="logical" name="LDOWNSAMPLE"> F  </i>
   <i type="logical" name="LCHARG"> T  </i>
   <i type="logical" name="LPARD"> F  </i>
   <i type="logical" name="LVTOT"> F  </i>
   <i type="logical" name="LVHAR"> F  </i>
   <i type="logical" name="LELF"> F  </i>
   <i type="logical" name="LOPTICS"> F  </i>
   <v name="STM">      0.00000000      0.00000000      0.00000000      0.00000000      0.00000000      0.00000000      0.00000000</v>
  </separator>
  <separator name="performance" >
   <i type="int" name="NPAR">     2</i>
   <i type="int" name="NSIM">     4</i>
   <i type="int" name="NBLK">    -1</i>
   <i type="logical" name="LPLANE"> T  </i>
   <i type="logical" name="LSCALAPACK"> T  </i>
   <i type="logical" name="LSCAAWARE"> F  </i>
   <i type="logical" name="LSCALU"> F  </i>
   <i type="logical" name="LASYNC"> F  </i>
   <i type="logical" name="LORBITALREAL"> F  </i>
  </separator>
  <separator name="miscellaneous" >
   <i type="int" name="IDIOT">     3</i>
   <i type="int" name="PHON_NSTRUCT">    -1</i>
   <i type="logical" name="LMUSIC"> F  </i>
   <v name="POMASS">     12.01100000     12.01100000</v>
   <v name="DARWINR">      0.00000000      0.00000000</v>
   <v name="DARWINV">      1.00000000      1.00000000</v>
   <i type="logical" name="LCORR"> T  </i>
  </separator>
  <i type="logical" name="GGA_COMPAT"> T  </i>
  <i type="logical" name="LBERRY"> F  </i>
  <i type="int" name="ICORELEVEL">     0</i>
  <i type="logical" name="LDAU"> F  </i>
  <i type="int" name="I_CONSTRAINED_M">     0</i>
  <separator name="electronic exchange-correlation" >
   <i type="string" name="GGA">PE</i>
   <i type="int" name="VOSKOWN">     0</i>
   <i type="logical" name="LHFCALC"> F  </i>
   <i type="string" name="PRECFOCK"></i>
   <i type="logical" name="LSYMGRAD"> F  </i>
   <i type="logical" name="LHFONE"> F  </i>
   <i type="logical" name="LRHFCALC"> F  </i>
   <i type="logical" name="LTHOMAS"> F  </i>
   <i type="logical" name="LMODELHF"> F  </i>
   <i type="logical" name="LFOCKACE"> F  </i>
   <i name="ENCUT4O">     -1.00000000</i>
   <i type="int" name="EXXOEP">     0</i>
   <i type="int" name="FOURORBIT">     0</i>
   <i name="AEXX">      0.00000000</i>
   <i name="HFALPHA">      0.00000000</i>
   <i name="MCALPHA">      0.00000000</i>
   <i name="ALDAX">      1.00000000</i>
   <i name="AGGAX">      1.00000000</i>
   <i name="ALDAC">      1.00000000</i>
   <i name="AGGAC">      1.00000000</i>
   <i type="int" name="NKREDX">     1</i>
   <i type="int" name="NKREDY">     1</i>
   <i type="int" name="NKREDZ">     1</i>
   <i type="logical" name="SHIFTRED"> F  </i>
   <i type="logical" name="ODDONLY"> F  </i>
   <i type="logical" name="EVENONLY"> F  </i>
   <i type="int" name="LMAXFOCK">     0</i>
   <i type="int" name="NMAXFOCKAE">     0</i>
   <i type="logical" name="LFOCKAEDFT"> F  </i>
   <i name="HFSCREEN">      0.00000000</i>
   <i name="HFSCREENC">      0.00000000</i>
   <i type="int" name="NBANDSGWLOW">     0</i>
  </separator>
  <separator name="vdW DFT" >
   <i type="logical" name="LUSE_VDW"> F  </i>
   <i name="Zab_VDW">     -0.84910000</i>
   <i name="PARAM1">      0.12340000</i>
   <i name="PARAM2">      1.00000000</i>
   <i name="PARAM3">      0.00000000</i>
  </separator>
  <separator name="model GW" >
   <i type="int" name="MODEL_GW">     0</i>
   <i name="MODEL_EPS0">      8.54770000</i>
   <i name="MODEL_ALPHA">      1.00000000</i>
  </separator>
  <separator name="linear response parameters" >
   <i type="logical" name="LEPSILON"> F  </i>
   <i type="logical" name="LRPA"> F  </i>
   <i type="logical" name="LNABLA"> F  </i>
   <i type="logical" name="LVEL"> F  </i>
   <i name="CSHIFT">      0.10000000</i>
   <i name="OMEGAMAX">     -1.00000000</i>
   <i name="DEG_THRESHOLD">      0.00200000</i>
   <i name="RTIME">     -0.10000000</i>
   <i name="WPLASMAI">      0.00000000</i>
   <v name="DFIELD">      0.00000000      0.00000000      0.00000000</v>
   <v name="WPLASMA">      0.00000000      0.00000000      0.00000000      0.00000000      0.00000000      0.00000000      0.00000000      0.00000000      0.00000000</v>
  </separator>
  <separator name="orbital magnetization" >
   <i type="logical" name="NUCIND"> F  </i>
   <v name="MAGPOS">      0.00000000      0.00000000      0.00000000</v>
   <i type="logical" name="LNICSALL"> T  </i>
   <i type="logical" name="ORBITALMAG"> F  </i>
   <i type="logical" name="LMAGBLOCH"> F  </i>
   <i type="logical" name="LCHIMAG"> F  </i>
   <i type="logical" name="LGAUGE"> T  </i>
   <i type="int" name="MAGATOM">     0</i>
   <v name="MAGDIPOL">      0.00000000      0.00000000      0.00000000</v>
   <v name="AVECCONST">      0.00000000      0.00000000      0.00000000</v>
  </separator>
  <separator name="response functions" >
   <i type="logical" name="LFINITE_TEMPERATURE"> F  </i>
   <i type="logical" name="LADDER"> F  </i>
   <i type="logical" name="LRPAFORCE"> F  </i>
   <i type="logical" name="LFXC"> F  </i>
   <i type="logical" name="LHARTREE"> T  </i>
   <i type="int" name="IBSE">     0</i>
   <v type="int" name="KPOINT">    -1     0     0     0</v>
   <i type="logical" name="LTCTC"> F  </i>
   <i type="logical" name="LTCTE"> F  </i>
   <i type="logical" name="LTETE"> F  </i>
   <i type="logical" name="LTRIPLET"> F  </i>
   <i type="logical" name="LFXCEPS"> F  </i>
   <i type="logical" name="LFXHEG"> F  </i>
   <i type="int" name="NATURALO">     2</i>
   <i type="logical" name="LHOLEGF"> F  </i>
   <i type="logical" name="L2ORDER"> F  </i>
   <i type="logical" name="LDMP1"> F  </i>
   <i type="logical" name="LMP2LT"> F  </i>
   <i type="logical" name="LSMP2LT"> F  </i>
   <i type="logical" name="LGWLF"> F  </i>
   <i name="ENCUTGW">     -2.00000000</i>
   <i name="ENCUTGWSOFT">     -2.00000000</i>
   <i name="ENCUTLF">     -1.00000000</i>
   <i type="logical" name="LESF_SPLINES"> F  </i>
   <i type="int" name="LMAXMP2">    -1</i>
   <i name="SCISSOR">      0.00000000</i>
   <i type="int" name="NOMEGA">     0</i>
   <i type="int" name="NOMEGAR">     0</i>
   <i type="int" name="NBANDSGW">    -1</i>
   <i type="int" name="NBANDSO">    -1</i>
   <i type="int" name="NBANDSV">    -1</i>
   <i type="int" name="NELMGW">     1</i>
   <i type="int" name="NELMHF">     1</i>
   <i type="int" name="DIM">     3</i>
   <i type="int" name="IESPILON">     4</i>
   <i type="int" name="ANTIRES">     0</i>
   <i name="OMEGAMAX">    -30.00000000</i>
   <i name="OMEGAMIN">    -30.00000000</i>
   <i name="OMEGATL">   -200.00000000</i>
   <i type="int" name="OMEGAGRID">     0</i>
   <i name="CSHIFT">     -0.10000000</i>
   <i type="logical" name="LSELFENERGY"> F  </i>
   <i type="logical" name="LSPECTRAL"> F  </i>
   <i type="logical" name="LSPECTRALGW"> F  </i>
   <i type="logical" name="LSINGLES"> F  </i>
   <i type="logical" name="LFERMIGW"> F  </i>
   <i type="logical" name="ODDONLYGW"> F  </i>
   <i type="logical" name="EVENONLYGW"> F  </i>
   <i type="int" name="NKREDLFX">     1</i>
   <i type="int" name="NKREDLFY">     1</i>
   <i type="int" name="NKREDLFZ">     1</i>
   <i type="int" name="MAXMEM">  2800</i>
   <i type="int" name="TELESCOPE">     0</i>
   <i type="int" name="NTAUPAR">    -1</i>
   <i type="int" name="NOMEGAPAR">    -1</i>
   <i name="DAMP_NEWTON">      0.80000001</i>
   <i name="LAMBDA">      1.00000000</i>
  </separator>
  <separator name="External order field" >
   <i name="OFIELD_KAPPA">      0.00000000</i>
   <v name="OFIELD_K">      0.00000000      0.00000000      0.00000000</v>
   <i name="OFIELD_Q6_NEAR">      0.00000000</i>
   <i name="OFIELD_Q6_FAR">      0.00000000</i>
   <i name="OFIELD_A">      0.00000000</i>
  </separator>
  <separator name="optional k-points parameters" >
   <i type="int" name="KPOINTS_OPT_MODE">     1</i>
   <i type="logical" name="LKPOINTS_OPT"> F  </i>
  </separator>
 </parameters>
 <atominfo>
  <atoms>      12 </atoms>
  <types>       2 </types>
  <array name="atoms" >
   <dimension dim="1">ion</dimension>
   <field type="string">element</field>
   <field type="int">atomtype</field>
   <set>
    <rc><c>C </c><c>   1</c></rc>
    <rc><c>C </c><c>   1</c></rc>
    <rc><c>C </c><c>   1</c></rc>
    <rc><c>C </c><c>   1</c></rc>
    <rc><c>C </c><c>   2</c></rc>
    <rc><c>C </c><c>   2</c></rc>
    <rc><c>C </c><c>   2</c></rc>
    <rc><c>C </c><c>   2</c></rc>
    <rc><c>C </c><c>   2</c></rc>
    <rc><c>C </c><c>   2</c></rc>
    <rc><c>C </c><c>   2</c></rc>
    <rc><c>C </c><c>   2</c></rc>
   </set>
  </array>
  <array name="atomtypes" >
   <dimension dim="1">type</dimension>
   <field type="int">atomspertype</field>
   <field type="string">element</field>
   <field>mass</field>
   <field>valence</field>
   <field type="string">pseudopotential</field>
   <set>
    <rc><c>   4</c><c>C </c><c>     12.01100000</c><c>      4.00000000</c><c>  PAW_PBE C 08Apr2002                   </c></rc>
    <rc><c>   8</c><c>C </c><c>     12.01100000</c><c>      4.00000000</c><c>  PAW_PBE C 08Apr2002                   </c></rc>
   </set>
  </array>
 </atominfo>
 <structure name="initialpos" >
  <crystal>
   <varray name="basis" >
    <v>       5.55000135       0.00000000       0.00000000 </v>
    <v>       0.00000000       5.55000135       0.00000000 </v>
    <v>       0.00000000       0.00000000       5.55000135 </v>
   </varray>
   <i name="volume">    170.95400000 </i>
   <varray name="rec_basis" >
    <v>       0.18018014       0.00000000       0.00000000 </v>
    <v>       0.00000000       0.18018014       0.00000000 </v>
    <v>       0.00000000       0.00000000       0.18018014 </v>
   </varray>
  </crystal>
  <varray name="positions" >
   <v>       0.00015993       0.00023419       0.00000559 </v>
   <v>       0.49992225       0.99971461       0.50008182 </v>
   <v>       0.00016658       0.50047013       0.50009409 </v>
   <v>       0.50040726       0.49974500       0.00032315 </v>
   <v>       0.87858184       0.87807629       0.12113507 </v>
   <v>       0.12174634       0.12238626       0.87887991 </v>
   <v>       0.62150582       0.87776879       0.62141395 </v>
   <v>       0.37835823       0.12167251       0.37874238 </v>
   <v>       0.12166629       0.62283988       0.62108541 </v>
   <v>       0.87867452       0.37809371       0.37910556 </v>
   <v>       0.62209134       0.37783887       0.87905199 </v>
   <v>       0.37871961       0.62165978       0.12158108 </v>
  </varray>
 </structure>
 <calculation>
  <scstep>
   <time name="dav">    3.82    3.82</time>
   <time name="total">    3.86    3.87</time>
   <energy>
    <i name="alphaZ">     69.19479570 </i>
    <i name="ewald">  -1143.37592847 </i>
    <i name="hartreedc">   -459.69675202 </i>
    <i name="XCdc">    148.56560462 </i>
    <i name="pawpsdc">   1302.26455656 </i>
    <i name="pawaedc">  -1309.09742627 </i>
    <i name="eentropy">     -0.03688072 </i>
    <i name="bandstr">   -152.42277413 </i>
    <i name="atom">   1765.78671975 </i>
    <i name="e_fr_energy">    221.18191503 </i>
    <i name="e_wo_entrp">    221.21879575 </i>
    <i name="e_0_energy">    221.20035539 </i>
   </energy>
  </scstep>
  <scstep>
   <time name="dav">    4.73    4.73</time>
   <time name="total">    4.73    4.73</time>
   <energy>
    <i name="e_fr_energy">    -59.11133840 </i>
    <i name="e_wo_entrp">    -59.10937912 </i>
    <i name="e_0_energy">    -59.11035876 </i>
   </energy>
  </scstep>
  <scstep>
   <time name="dav">    4.23    4.23</time>
   <time name="total">    4.24    4.24</time>
   <energy>
    <i name="e_fr_energy">    -82.55199486 </i>
    <i name="e_wo_entrp">    -82.55199403 </i>
    <i name="e_0_energy">    -82.55199445 </i>
   </energy>
  </scstep>
  <scstep>
   <time name="dav">    4.20    4.20</time>
   <time name="total">    4.20    4.20</time>
   <energy>
    <i name="e_fr_energy">    -83.16695927 </i>
    <i name="e_wo_entrp">    -83.16695864 </i>
    <i name="e_0_energy">    -83.16695895 </i>
   </energy>
  </scstep>
  <scstep>
   <time name="dav">    4.67    4.67</time>
   <time name="total">    4.86    4.86</time>
   <energy>
    <i name="e_fr_energy">    -83.19144927 </i>
    <i name="e_wo_entrp">    -83.19144864 </i>
    <i name="e_0_energy">    -83.19144895 </i>
   </energy>
  </scstep>
  <scstep>
   <time name="dav">    3.81    3.81</time>
   <time name="total">    4.05    4.05</time>
   <energy>
    <i name="e_fr_energy">    -71.30022097 </i>
    <i name="e_wo_entrp">    -71.30020582 </i>
    <i name="e_0_energy">    -71.30021339 </i>
   </energy>
  </scstep>
  <scstep>
   <time name="dav">    3.87    3.87</time>
   <time name="total">    4.10    4.10</time>
   <energy>
    <i name="e_fr_energy">    -69.34871253 </i>
    <i name="e_wo_entrp">    -69.34835900 </i>
    <i name="e_0_energy">    -69.34853577 </i>
   </energy>
  </scstep>
  <scstep>
   <time name="dav">    4.42    4.42</time>
   <time name="total">    4.66    4.66</time>
   <energy>
    <i name="e_fr_energy">    -69.23324553 </i>
    <i name="e_wo_entrp">    -69.23226518 </i>
    <i name="e_0_energy">    -69.23275536 </i>
   </energy>
  </scstep>
  <scstep>
   <time name="dav">    3.80    3.80</time>
   <time name="total">    4.04    4.04</time>
   <energy>
    <i name="e_fr_energy">    -69.23339395 </i>
    <i name="e_wo_entrp">    -69.23245071 </i>
    <i name="e_0_energy">    -69.23292233 </i>
   </energy>
  </scstep>
  <scstep>
   <time name="dav">    4.24    4.24</time>
   <time name="total">    4.48    4.48</time>
   <energy>
    <i name="e_fr_energy">    -69.23518888 </i>
    <i name="e_wo_entrp">    -69.23426657 </i>
    <i name="e_0_energy">    -69.23472772 </i>
   </energy>
  </scstep>
  <scstep>
   <time name="dav">    3.93    3.93</time>
   <time name="total">    4.17    4.17</time>
   <energy>
    <i name="e_fr_energy">    -69.23563639 </i>
    <i name="e_wo_entrp">    -69.23472334 </i>
    <i name="e_0_energy">    -69.23517986 </i>
   </energy>
  </scstep>
  <scstep>
   <time name="dav">    2.80    2.80</time>
   <time name="total">    2.85    2.85</time>
   <energy>
    <i name="alphaZ">     69.19479570 </i>
    <i name="ewald">  -1143.37592847 </i>
    <i name="hartreedc">   -576.37060391 </i>
    <i name="XCdc">    157.06374741 </i>
    <i name="pawpsdc">   5277.91910891 </i>
    <i name="pawaedc">  -5286.49041460 </i>
    <i name="eentropy">     -0.00091159 </i>
    <i name="bandstr">   -332.96223725 </i>
    <i name="atom">   1765.78671975 </i>
    <i name="e_fr_energy">    -69.23572406 </i>
    <i name="e_wo_entrp">    -69.23481248 </i>
    <i name="e_0_energy">    -69.23526827 </i>
   </energy>
  </scstep>
  <structure>
   <crystal>
    <varray name="basis" >
     <v>       5.55000135       0.00000000       0.00000000 </v>
     <v>       0.00000000       5.55000135       0.00000000 </v>
     <v>       0.00000000       0.00000000       5.55000135 </v>
    </varray>
    <i name="volume">    170.95400000 </i>
    <varray name="rec_basis" >
     <v>       0.18018014       0.00000000       0.00000000 </v>
     <v>       0.00000000       0.18018014       0.00000000 </v>
     <v>       0.00000000       0.00000000       0.18018014 </v>
    </varray>
   </crystal>
   <varray name="positions" >
    <v>       0.00015993       0.00023419       0.00000559 </v>
    <v>       0.49992225       0.99971461       0.50008182 </v>
    <v>       0.00016658       0.50047013       0.50009409 </v>
    <v>       0.50040726       0.49974500       0.00032315 </v>
    <v>       0.87858184       0.87807629       0.12113507 </v>
    <v>       0.12174634       0.12238626       0.87887991 </v>
    <v>       0.62150582       0.87776879       0.62141395 </v>
    <v>       0.37835823       0.12167251       0.37874238 </v>
    <v>       0.12166629       0.62283988       0.62108541 </v>
    <v>       0.87867452       0.37809371       0.37910556 </v>
    <v>       0.62209134       0.37783887       0.87905199 </v>
    <v>       0.37871961       0.62165978       0.12158108 </v>
   </varray>
  </structure>
  <varray name="forces" >
   <v>      -0.00188802      -0.00443322       0.00364230 </v>
   <v>       0.00388694       0.00039526       0.00049229 </v>
   <v>       0.00420180       0.00553605       0.00234849 </v>
   <v>       0.00013390      -0.00095278       0.00110874 </v>
   <v>      -6.84431652      -6.87365273       6.81714132 </v>
   <v>       6.84481048       6.87516729      -6.82216535 </v>
   <v>       6.84418128      -6.86166196       6.83425245 </v>
   <v>      -6.84584062       6.86980934      -6.83072680 </v>
   <v>       6.84049706       6.88175671       6.81433402 </v>
   <v>      -6.84118686      -6.89507062      -6.81135141 </v>
   <v>       6.84897008      -6.86192076      -6.83431777 </v>
   <v>      -6.85344952       6.86502742       6.82524172 </v>
  </varray>
  <varray name="stress" >
   <v>     404.20964330       0.50451051      -0.26317916 </v>
   <v>       0.50451049     407.83146727      -0.02933454 </v>
   <v>      -0.26317913      -0.02933461     401.72703579 </v>
  </varray>
  <energy>
   <i name="e_fr_energy">    -69.23572406 </i>
   <i name="e_wo_entrp">    -69.23481248 </i>
   <i name="e_0_energy">    -69.23526827 </i>
  </energy>
  <time name="totalsc">   57.28   58.07</time>
  <eigenvalues>
   <array>
    <dimension dim="1">band</dimension>
    <dimension dim="2">kpoint</dimension>
    <dimension dim="3">spin</dimension>
    <field>eigene</field>
    <field>occ</field>
    <set>
     <set comment="spin 1">
      <set comment="kpoint 1">
       <r>  -16.2857    1.0000 </r>
       <r>  -15.7962    1.0000 </r>
       <r>  -15.7947    1.0000 </r>
       <r>  -15.7930    1.0000 </r>
       <r>  -12.7857    1.0000 </r>
       <r>  -12.7845    1.0000 </r>
       <r>  -12.7810    1.0000 </r>
       <r>  -12.6599    1.0000 </r>
       <r>   -5.2534    1.0000 </r>
       <r>   -5.2499    1.0000 </r>
       <r>   -5.2469    1.0000 </r>
       <r>   -4.4441    1.0000 </r>
       <r>   -4.4400    1.0000 </r>
       <r>   -3.8530    1.0000 </r>
       <r>   -3.8498    1.0000 </r>
       <r>   -3.8448    1.0000 </r>
       <r>   -3.3897    1.0000 </r>
       <r>   -2.2181    1.0000 </r>
       <r>   -2.2151    1.0000 </r>
       <r>   -2.2104    1.0000 </r>
       <r>   -1.3669    1.0000 </r>
       <r>   -1.3610    1.0000 </r>
       <r>   -1.3582    1.0000 </r>
       <r>   -0.9752    0.9450 </r>
       <r>   -0.4772    0.0272 </r>
       <r>   -0.4760    0.0267 </r>
       <r>   -0.4753    0.0264 </r>
       <r>    1.1250    0.0000 </r>
       <r>    1.1292    0.0000 </r>
       <r>    1.1431    0.0000 </r>
       <r>    1.6486    0.0000 </r>
       <r>    1.6503    0.0000 </r>
      </set>
      <set comment="kpoint 2">
       <r>  -16.2425    1.0000 </r>
       <r>  -15.8458    1.0000 </r>
       <r>  -15.7949    1.0000 </r>
       <r>  -15.7921    1.0000 </r>
       <r>  -12.7804    1.0000 </r>
       <r>  -12.7772    1.0000 </r>
       <r>  -12.7741    1.0000 </r>
       <r>  -12.6726    1.0000 </r>
       <r>   -5.2354    1.0000 </r>
       <r>   -5.2067    1.0000 </r>
       <r>   -5.2013    1.0000 </r>
       <r>   -4.5729    1.0000 </r>
       <r>   -4.4239    1.0000 </r>
       <r>   -4.1801    1.0000 </r>
       <r>   -3.9972    1.0000 </r>
       <r>   -3.9545    1.0000 </r>
       <r>   -2.9639    1.0000 </r>
       <r>   -2.1295    1.0000 </r>
       <r>   -2.1169    1.0000 </r>
       <r>   -2.0786    1.0000 </r>
       <r>   -1.5234    1.0000 </r>
       <r>   -1.4187    1.0000 </r>
       <r>   -1.4113    1.0000 </r>
       <r>   -1.1370    0.9969 </r>
       <r>   -0.2566    0.0002 </r>
       <r>   -0.2369    0.0001 </r>
       <r>   -0.2323    0.0001 </r>
       <r>    1.0961    0.0000 </r>
       <r>    1.0987    0.0000 </r>
       <r>    1.2089    0.0000 </r>
       <r>    1.4565    0.0000 </r>
       <r>    1.6281    0.0000 </r>
      </set>
      <set comment="kpoint 3">
       <r>  -16.2425    1.0000 </r>
       <r>  -15.8454    1.0000 </r>
       <r>  -15.7943    1.0000 </r>
       <r>  -15.7930    1.0000 </r>
       <r>  -12.7812    1.0000 </r>
       <r>  -12.7796    1.0000 </r>
       <r>  -12.7713    1.0000 </r>
       <r>  -12.6723    1.0000 </r>
       <r>   -5.2334    1.0000 </r>
       <r>   -5.2122    1.0000 </r>
       <r>   -5.1990    1.0000 </r>
       <r>   -4.5713    1.0000 </r>
       <r>   -4.4268    1.0000 </r>
       <r>   -4.1793    1.0000 </r>
       <r>   -3.9892    1.0000 </r>
       <r>   -3.9593    1.0000 </r>
       <r>   -2.9665    1.0000 </r>
       <r>   -2.1234    1.0000 </r>
       <r>   -2.1180    1.0000 </r>
       <r>   -2.0827    1.0000 </r>
       <r>   -1.5298    1.0000 </r>
       <r>   -1.4134    1.0000 </r>
       <r>   -1.4104    1.0000 </r>
       <r>   -1.1355    0.9968 </r>
       <r>   -0.2546    0.0002 </r>
       <r>   -0.2389    0.0002 </r>
       <r>   -0.2327    0.0001 </r>
       <r>    1.0823    0.0000 </r>
       <r>    1.1073    0.0000 </r>
       <r>    1.2128    0.0000 </r>
       <r>    1.4553    0.0000 </r>
       <r>    1.6294    0.0000 </r>
      </set>
      <set comment="kpoint 4">
       <r>  -16.2426    1.0000 </r>
       <r>  -15.8463    1.0000 </r>
       <r>  -15.7935    1.0000 </r>
       <r>  -15.7929    1.0000 </r>
       <r>  -12.7816    1.0000 </r>
       <r>  -12.7789    1.0000 </r>
       <r>  -12.7715    1.0000 </r>
       <r>  -12.6723    1.0000 </r>
       <r>   -5.2383    1.0000 </r>
       <r>   -5.2092    1.0000 </r>
       <r>   -5.1960    1.0000 </r>
       <r>   -4.5736    1.0000 </r>
       <r>   -4.4239    1.0000 </r>
       <r>   -4.1761    1.0000 </r>
       <r>   -3.9933    1.0000 </r>
       <r>   -3.9617    1.0000 </r>
       <r>   -2.9630    1.0000 </r>
       <r>   -2.1290    1.0000 </r>
       <r>   -2.1124    1.0000 </r>
       <r>   -2.0853    1.0000 </r>
       <r>   -1.5244    1.0000 </r>
       <r>   -1.4180    1.0000 </r>
       <r>   -1.4112    1.0000 </r>
       <r>   -1.1363    0.9969 </r>
       <r>   -0.2573    0.0003 </r>
       <r>   -0.2372    0.0001 </r>
       <r>   -0.2333    0.0001 </r>
       <r>    1.0869    0.0000 </r>
       <r>    1.0934    0.0000 </r>
       <r>    1.2248    0.0000 </r>
       <r>    1.4566    0.0000 </r>
       <r>    1.6291    0.0000 </r>
      </set>
      <set comment="kpoint 5">
       <r>  -16.1263    1.0000 </r>
       <r>  -15.9750    1.0000 </r>
       <r>  -15.7930    1.0000 </r>
       <r>  -15.7904    1.0000 </r>
       <r>  -12.7738    1.0000 </r>
       <r>  -12.7705    1.0000 </r>
       <r>  -12.7440    1.0000 </r>
       <r>  -12.7051    1.0000 </r>
       <r>   -5.1772    1.0000 </r>
       <r>   -5.1280    1.0000 </r>
       <r>   -5.0732    1.0000 </r>
       <r>   -4.8402    1.0000 </r>
       <r>   -4.4185    1.0000 </r>
       <r>   -4.3437    1.0000 </r>
       <r>   -4.2819    1.0000 </r>
       <r>   -4.1714    1.0000 </r>
       <r>   -2.3883    1.0000 </r>
       <r>   -1.9252    1.0000 </r>
       <r>   -1.9200    1.0000 </r>
       <r>   -1.9008    1.0000 </r>
       <r>   -1.7986    1.0000 </r>
       <r>   -1.5640    1.0000 </r>
       <r>   -1.5331    1.0000 </r>
       <r>   -1.4308    1.0000 </r>
       <r>    0.1823    0.0000 </r>
       <r>    0.1989    0.0000 </r>
       <r>    0.3058    0.0000 </r>
       <r>    0.9437    0.0000 </r>
       <r>    0.9457    0.0000 </r>
       <r>    0.9495    0.0000 </r>
       <r>    1.3907    0.0000 </r>
       <r>    1.5478    0.0000 </r>
      </set>
      <set comment="kpoint 6">
       <r>  -16.1261    1.0000 </r>
       <r>  -15.9748    1.0000 </r>
       <r>  -15.7925    1.0000 </r>
       <r>  -15.7913    1.0000 </r>
       <r>  -12.7742    1.0000 </r>
       <r>  -12.7729    1.0000 </r>
       <r>  -12.7420    1.0000 </r>
       <r>  -12.7041    1.0000 </r>
       <r>   -5.1773    1.0000 </r>
       <r>   -5.1285    1.0000 </r>
       <r>   -5.0764    1.0000 </r>
       <r>   -4.8407    1.0000 </r>
       <r>   -4.4125    1.0000 </r>
       <r>   -4.3472    1.0000 </r>
       <r>   -4.2739    1.0000 </r>
       <r>   -4.1756    1.0000 </r>
       <r>   -2.3920    1.0000 </r>
       <r>   -1.9212    1.0000 </r>
       <r>   -1.9195    1.0000 </r>
       <r>   -1.9035    1.0000 </r>
       <r>   -1.8029    1.0000 </r>
       <r>   -1.5650    1.0000 </r>
       <r>   -1.5290    1.0000 </r>
       <r>   -1.4275    1.0000 </r>
       <r>    0.1871    0.0000 </r>
       <r>    0.1994    0.0000 </r>
       <r>    0.3035    0.0000 </r>
       <r>    0.9337    0.0000 </r>
       <r>    0.9436    0.0000 </r>
       <r>    0.9512    0.0000 </r>
       <r>    1.3937    0.0000 </r>
       <r>    1.5498    0.0000 </r>
      </set>
      <set comment="kpoint 7">
       <r>  -16.1264    1.0000 </r>
       <r>  -15.9754    1.0000 </r>
       <r>  -15.7917    1.0000 </r>
       <r>  -15.7912    1.0000 </r>
       <r>  -12.7744    1.0000 </r>
       <r>  -12.7727    1.0000 </r>
       <r>  -12.7422    1.0000 </r>
       <r>  -12.7042    1.0000 </r>
       <r>   -5.1786    1.0000 </r>
       <r>   -5.1262    1.0000 </r>
       <r>   -5.0747    1.0000 </r>
       <r>   -4.8408    1.0000 </r>
       <r>   -4.4133    1.0000 </r>
       <r>   -4.3460    1.0000 </r>
       <r>   -4.2765    1.0000 </r>
       <r>   -4.1763    1.0000 </r>
       <r>   -2.3881    1.0000 </r>
       <r>   -1.9267    1.0000 </r>
       <r>   -1.9175    1.0000 </r>
       <r>   -1.9031    1.0000 </r>
       <r>   -1.8033    1.0000 </r>
       <r>   -1.5702    1.0000 </r>
       <r>   -1.5257    1.0000 </r>
       <r>   -1.4279    1.0000 </r>
       <r>    0.1783    0.0000 </r>
       <r>    0.1934    0.0000 </r>
       <r>    0.3059    0.0000 </r>
       <r>    0.9407    0.0000 </r>
       <r>    0.9446    0.0000 </r>
       <r>    0.9493    0.0000 </r>
       <r>    1.4011    0.0000 </r>
       <r>    1.5526    0.0000 </r>
      </set>
      <set comment="kpoint 8">
       <r>  -16.2025    1.0000 </r>
       <r>  -15.8397    1.0000 </r>
       <r>  -15.8390    1.0000 </r>
       <r>  -15.7975    1.0000 </r>
       <r>  -12.7795    1.0000 </r>
       <r>  -12.7723    1.0000 </r>
       <r>  -12.7664    1.0000 </r>
       <r>  -12.6841    1.0000 </r>
       <r>   -5.3042    1.0000 </r>
       <r>   -5.2173    1.0000 </r>
       <r>   -5.0348    1.0000 </r>
       <r>   -4.6506    1.0000 </r>
       <r>   -4.4662    1.0000 </r>
       <r>   -4.4469    1.0000 </r>
       <r>   -3.9948    1.0000 </r>
       <r>   -3.9283    1.0000 </r>
       <r>   -2.7752    1.0000 </r>
       <r>   -2.0853    1.0000 </r>
       <r>   -2.0073    1.0000 </r>
       <r>   -1.9988    1.0000 </r>
       <r>   -1.5860    1.0000 </r>
       <r>   -1.5579    1.0000 </r>
       <r>   -1.4121    1.0000 </r>
       <r>   -1.2245    0.9996 </r>
       <r>   -0.0849    0.0000 </r>
       <r>   -0.0614    0.0000 </r>
       <r>   -0.0422    0.0000 </r>
       <r>    1.0759    0.0000 </r>
       <r>    1.1476    0.0000 </r>
       <r>    1.1555    0.0000 </r>
       <r>    1.3897    0.0000 </r>
       <r>    1.5095    0.0000 </r>
      </set>
      <set comment="kpoint 9">
       <r>  -16.2025    1.0000 </r>
       <r>  -15.8410    1.0000 </r>
       <r>  -15.8381    1.0000 </r>
       <r>  -15.7971    1.0000 </r>
       <r>  -12.7794    1.0000 </r>
       <r>  -12.7708    1.0000 </r>
       <r>  -12.7680    1.0000 </r>
       <r>  -12.6840    1.0000 </r>
       <r>   -5.3026    1.0000 </r>
       <r>   -5.2212    1.0000 </r>
       <r>   -5.0331    1.0000 </r>
       <r>   -4.6517    1.0000 </r>
       <r>   -4.4668    1.0000 </r>
       <r>   -4.4433    1.0000 </r>
       <r>   -3.9979    1.0000 </r>
       <r>   -3.9256    1.0000 </r>
       <r>   -2.7752    1.0000 </r>
       <r>   -2.0806    1.0000 </r>
       <r>   -2.0120    1.0000 </r>
       <r>   -2.0011    1.0000 </r>
       <r>   -1.5910    1.0000 </r>
       <r>   -1.5526    1.0000 </r>
       <r>   -1.4119    1.0000 </r>
       <r>   -1.2239    0.9996 </r>
       <r>   -0.0846    0.0000 </r>
       <r>   -0.0642    0.0000 </r>
       <r>   -0.0419    0.0000 </r>
       <r>    1.0637    0.0000 </r>
       <r>    1.1518    0.0000 </r>
       <r>    1.1653    0.0000 </r>
       <r>    1.3909    0.0000 </r>
       <r>    1.5087    0.0000 </r>
      </set>
      <set comment="kpoint 10">
       <r>  -16.2026    1.0000 </r>
       <r>  -15.8403    1.0000 </r>
       <r>  -15.8391    1.0000 </r>
       <r>  -15.7967    1.0000 </r>
       <r>  -12.7785    1.0000 </r>
       <r>  -12.7701    1.0000 </r>
       <r>  -12.7694    1.0000 </r>
       <r>  -12.6842    1.0000 </r>
       <r>   -5.3040    1.0000 </r>
       <r>   -5.2187    1.0000 </r>
       <r>   -5.0333    1.0000 </r>
       <r>   -4.6543    1.0000 </r>
       <r>   -4.4634    1.0000 </r>
       <r>   -4.4442    1.0000 </r>
       <r>   -4.0008    1.0000 </r>
       <r>   -3.9243    1.0000 </r>
       <r>   -2.7738    1.0000 </r>
       <r>   -2.0799    1.0000 </r>
       <r>   -2.0137    1.0000 </r>
       <r>   -2.0015    1.0000 </r>
       <r>   -1.5873    1.0000 </r>
       <r>   -1.5509    1.0000 </r>
       <r>   -1.4166    1.0000 </r>
       <r>   -1.2244    0.9996 </r>
       <r>   -0.0851    0.0000 </r>
       <r>   -0.0625    0.0000 </r>
       <r>   -0.0433    0.0000 </r>
       <r>    1.0664    0.0000 </r>
       <r>    1.1539    0.0000 </r>
       <r>    1.1617    0.0000 </r>
       <r>    1.3923    0.0000 </r>
       <r>    1.5074    0.0000 </r>
      </set>
      <set comment="kpoint 11">
       <r>  -16.2025    1.0000 </r>
       <r>  -15.8396    1.0000 </r>
       <r>  -15.8391    1.0000 </r>
       <r>  -15.7975    1.0000 </r>
       <r>  -12.7771    1.0000 </r>
       <r>  -12.7719    1.0000 </r>
       <r>  -12.7689    1.0000 </r>
       <r>  -12.6843    1.0000 </r>
       <r>   -5.3049    1.0000 </r>
       <r>   -5.2165    1.0000 </r>
       <r>   -5.0346    1.0000 </r>
       <r>   -4.6519    1.0000 </r>
       <r>   -4.4656    1.0000 </r>
       <r>   -4.4457    1.0000 </r>
       <r>   -3.9949    1.0000 </r>
       <r>   -3.9284    1.0000 </r>
       <r>   -2.7761    1.0000 </r>
       <r>   -2.0838    1.0000 </r>
       <r>   -2.0077    1.0000 </r>
       <r>   -2.0022    1.0000 </r>
       <r>   -1.5878    1.0000 </r>
       <r>   -1.5569    1.0000 </r>
       <r>   -1.4098    1.0000 </r>
       <r>   -1.2240    0.9996 </r>
       <r>   -0.0846    0.0000 </r>
       <r>   -0.0607    0.0000 </r>
       <r>   -0.0434    0.0000 </r>
       <r>    1.0763    0.0000 </r>
       <r>    1.1475    0.0000 </r>
       <r>    1.1565    0.0000 </r>
       <r>    1.3897    0.0000 </r>
       <r>    1.5090    0.0000 </r>
      </set>
      <set comment="kpoint 12">
       <r>  -16.2026    1.0000 </r>
       <r>  -15.8405    1.0000 </r>
       <r>  -15.8390    1.0000 </r>
       <r>  -15.7967    1.0000 </r>
       <r>  -12.7789    1.0000 </r>
       <r>  -12.7710    1.0000 </r>
       <r>  -12.7681    1.0000 </r>
       <r>  -12.6842    1.0000 </r>
       <r>   -5.3037    1.0000 </r>
       <r>   -5.2190    1.0000 </r>
       <r>   -5.0335    1.0000 </r>
       <r>   -4.6538    1.0000 </r>
       <r>   -4.4636    1.0000 </r>
       <r>   -4.4446    1.0000 </r>
       <r>   -4.0009    1.0000 </r>
       <r>   -3.9244    1.0000 </r>
       <r>   -2.7732    1.0000 </r>
       <r>   -2.0798    1.0000 </r>
       <r>   -2.0135    1.0000 </r>
       <r>   -2.0004    1.0000 </r>
       <r>   -1.5869    1.0000 </r>
       <r>   -1.5513    1.0000 </r>
       <r>   -1.4174    1.0000 </r>
       <r>   -1.2251    0.9996 </r>
       <r>   -0.0854    0.0000 </r>
       <r>   -0.0627    0.0000 </r>
       <r>   -0.0427    0.0000 </r>
       <r>    1.0664    0.0000 </r>
       <r>    1.1535    0.0000 </r>
       <r>    1.1617    0.0000 </r>
       <r>    1.3921    0.0000 </r>
       <r>    1.5077    0.0000 </r>
      </set>
      <set comment="kpoint 13">
       <r>  -16.2025    1.0000 </r>
       <r>  -15.8410    1.0000 </r>
       <r>  -15.8381    1.0000 </r>
       <r>  -15.7971    1.0000 </r>
       <r>  -12.7802    1.0000 </r>
       <r>  -12.7708    1.0000 </r>
       <r>  -12.7673    1.0000 </r>
       <r>  -12.6839    1.0000 </r>
       <r>   -5.3025    1.0000 </r>
       <r>   -5.2213    1.0000 </r>
       <r>   -5.0330    1.0000 </r>
       <r>   -4.6514    1.0000 </r>
       <r>   -4.4671    1.0000 </r>
       <r>   -4.4436    1.0000 </r>
       <r>   -3.9978    1.0000 </r>
       <r>   -3.9254    1.0000 </r>
       <r>   -2.7753    1.0000 </r>
       <r>   -2.0815    1.0000 </r>
       <r>   -2.0119    1.0000 </r>
       <r>   -2.0003    1.0000 </r>
       <r>   -1.5904    1.0000 </r>
       <r>   -1.5529    1.0000 </r>
       <r>   -1.4125    1.0000 </r>
       <r>   -1.2236    0.9996 </r>
       <r>   -0.0843    0.0000 </r>
       <r>   -0.0645    0.0000 </r>
       <r>   -0.0418    0.0000 </r>
       <r>    1.0634    0.0000 </r>
       <r>    1.1519    0.0000 </r>
       <r>    1.1652    0.0000 </r>
       <r>    1.3910    0.0000 </r>
       <r>    1.5087    0.0000 </r>
      </set>
      <set comment="kpoint 14">
       <r>  -16.0950    1.0000 </r>
       <r>  -15.9566    1.0000 </r>
       <r>  -15.8243    1.0000 </r>
       <r>  -15.8082    1.0000 </r>
       <r>  -12.7730    1.0000 </r>
       <r>  -12.7645    1.0000 </r>
       <r>  -12.7476    1.0000 </r>
       <r>  -12.7136    1.0000 </r>
       <r>   -5.2573    1.0000 </r>
       <r>   -5.1297    1.0000 </r>
       <r>   -5.0770    1.0000 </r>
       <r>   -4.9251    1.0000 </r>
       <r>   -4.4680    1.0000 </r>
       <r>   -4.3257    1.0000 </r>
       <r>   -4.1702    1.0000 </r>
       <r>   -4.1286    1.0000 </r>
       <r>   -2.3387    1.0000 </r>
       <r>   -1.9466    1.0000 </r>
       <r>   -1.9161    1.0000 </r>
       <r>   -1.8673    1.0000 </r>
       <r>   -1.7586    1.0000 </r>
       <r>   -1.5986    1.0000 </r>
       <r>   -1.5399    1.0000 </r>
       <r>   -1.4430    1.0000 </r>
       <r>    0.2641    0.0000 </r>
       <r>    0.3223    0.0000 </r>
       <r>    0.4048    0.0000 </r>
       <r>    0.9570    0.0000 </r>
       <r>    0.9653    0.0000 </r>
       <r>    0.9683    0.0000 </r>
       <r>    1.2935    0.0000 </r>
       <r>    1.4203    0.0000 </r>
      </set>
      <set comment="kpoint 15">
       <r>  -16.0949    1.0000 </r>
       <r>  -15.9564    1.0000 </r>
       <r>  -15.8246    1.0000 </r>
       <r>  -15.8082    1.0000 </r>
       <r>  -12.7723    1.0000 </r>
       <r>  -12.7676    1.0000 </r>
       <r>  -12.7457    1.0000 </r>
       <r>  -12.7130    1.0000 </r>
       <r>   -5.2576    1.0000 </r>
       <r>   -5.1319    1.0000 </r>
       <r>   -5.0780    1.0000 </r>
       <r>   -4.9272    1.0000 </r>
       <r>   -4.4609    1.0000 </r>
       <r>   -4.3276    1.0000 </r>
       <r>   -4.1650    1.0000 </r>
       <r>   -4.1312    1.0000 </r>
       <r>   -2.3408    1.0000 </r>
       <r>   -1.9432    1.0000 </r>
       <r>   -1.9191    1.0000 </r>
       <r>   -1.8682    1.0000 </r>
       <r>   -1.7631    1.0000 </r>
       <r>   -1.5944    1.0000 </r>
       <r>   -1.5403    1.0000 </r>
       <r>   -1.4409    1.0000 </r>
       <r>    0.2676    0.0000 </r>
       <r>    0.3223    0.0000 </r>
       <r>    0.4025    0.0000 </r>
       <r>    0.9474    0.0000 </r>
       <r>    0.9637    0.0000 </r>
       <r>    0.9711    0.0000 </r>
       <r>    1.2962    0.0000 </r>
       <r>    1.4220    0.0000 </r>
      </set>
      <set comment="kpoint 16">
       <r>  -16.0952    1.0000 </r>
       <r>  -15.9568    1.0000 </r>
       <r>  -15.8242    1.0000 </r>
       <r>  -15.8078    1.0000 </r>
       <r>  -12.7722    1.0000 </r>
       <r>  -12.7675    1.0000 </r>
       <r>  -12.7458    1.0000 </r>
       <r>  -12.7131    1.0000 </r>
       <r>   -5.2582    1.0000 </r>
       <r>   -5.1306    1.0000 </r>
       <r>   -5.0772    1.0000 </r>
       <r>   -4.9280    1.0000 </r>
       <r>   -4.4625    1.0000 </r>
       <r>   -4.3260    1.0000 </r>
       <r>   -4.1658    1.0000 </r>
       <r>   -4.1319    1.0000 </r>
       <r>   -2.3374    1.0000 </r>
       <r>   -1.9419    1.0000 </r>
       <r>   -1.9158    1.0000 </r>
       <r>   -1.8705    1.0000 </r>
       <r>   -1.7656    1.0000 </r>
       <r>   -1.5924    1.0000 </r>
       <r>   -1.5454    1.0000 </r>
       <r>   -1.4417    1.0000 </r>
       <r>    0.2614    0.0000 </r>
       <r>    0.3159    0.0000 </r>
       <r>    0.4046    0.0000 </r>
       <r>    0.9515    0.0000 </r>
       <r>    0.9644    0.0000 </r>
       <r>    0.9712    0.0000 </r>
       <r>    1.3023    0.0000 </r>
       <r>    1.4241    0.0000 </r>
      </set>
      <set comment="kpoint 17">
       <r>  -16.0949    1.0000 </r>
       <r>  -15.9564    1.0000 </r>
       <r>  -15.8244    1.0000 </r>
       <r>  -15.8083    1.0000 </r>
       <r>  -12.7717    1.0000 </r>
       <r>  -12.7691    1.0000 </r>
       <r>  -12.7449    1.0000 </r>
       <r>  -12.7128    1.0000 </r>
       <r>   -5.2931    1.0000 </r>
       <r>   -5.2411    1.0000 </r>
       <r>   -4.7862    1.0000 </r>
       <r>   -4.7850    1.0000 </r>
       <r>   -4.7174    1.0000 </r>
       <r>   -4.5594    1.0000 </r>
       <r>   -4.0687    1.0000 </r>
       <r>   -4.0151    1.0000 </r>
       <r>   -2.3461    1.0000 </r>
       <r>   -1.9496    1.0000 </r>
       <r>   -1.9013    1.0000 </r>
       <r>   -1.8481    1.0000 </r>
       <r>   -1.7810    1.0000 </r>
       <r>   -1.7244    1.0000 </r>
       <r>   -1.4603    1.0000 </r>
       <r>   -1.4168    1.0000 </r>
       <r>    0.2761    0.0000 </r>
       <r>    0.2986    0.0000 </r>
       <r>    0.4229    0.0000 </r>
       <r>    0.9559    0.0000 </r>
       <r>    0.9649    0.0000 </r>
       <r>    1.0046    0.0000 </r>
       <r>    1.2801    0.0000 </r>
       <r>    1.3936    0.0000 </r>
      </set>
      <set comment="kpoint 18">
       <r>  -16.0950    1.0000 </r>
       <r>  -15.9566    1.0000 </r>
       <r>  -15.8246    1.0000 </r>
       <r>  -15.8078    1.0000 </r>
       <r>  -12.7717    1.0000 </r>
       <r>  -12.7673    1.0000 </r>
       <r>  -12.7461    1.0000 </r>
       <r>  -12.7135    1.0000 </r>
       <r>   -5.2920    1.0000 </r>
       <r>   -5.2426    1.0000 </r>
       <r>   -4.7865    1.0000 </r>
       <r>   -4.7841    1.0000 </r>
       <r>   -4.7203    1.0000 </r>
       <r>   -4.5582    1.0000 </r>
       <r>   -4.0705    1.0000 </r>
       <r>   -4.0131    1.0000 </r>
       <r>   -2.3416    1.0000 </r>
       <r>   -1.9445    1.0000 </r>
       <r>   -1.8988    1.0000 </r>
       <r>   -1.8513    1.0000 </r>
       <r>   -1.7818    1.0000 </r>
       <r>   -1.7225    1.0000 </r>
       <r>   -1.4667    1.0000 </r>
       <r>   -1.4202    1.0000 </r>
       <r>    0.2751    0.0000 </r>
       <r>    0.2937    0.0000 </r>
       <r>    0.4252    0.0000 </r>
       <r>    0.9601    0.0000 </r>
       <r>    0.9621    0.0000 </r>
       <r>    1.0103    0.0000 </r>
       <r>    1.2775    0.0000 </r>
       <r>    1.3930    0.0000 </r>
      </set>
      <set comment="kpoint 19">
       <r>  -16.0951    1.0000 </r>
       <r>  -15.9569    1.0000 </r>
       <r>  -15.8240    1.0000 </r>
       <r>  -15.8079    1.0000 </r>
       <r>  -12.7725    1.0000 </r>
       <r>  -12.7685    1.0000 </r>
       <r>  -12.7449    1.0000 </r>
       <r>  -12.7128    1.0000 </r>
       <r>   -5.2919    1.0000 </r>
       <r>   -5.2432    1.0000 </r>
       <r>   -4.7850    1.0000 </r>
       <r>   -4.7843    1.0000 </r>
       <r>   -4.7176    1.0000 </r>
       <r>   -4.5607    1.0000 </r>
       <r>   -4.0685    1.0000 </r>
       <r>   -4.0142    1.0000 </r>
       <r>   -2.3429    1.0000 </r>
       <r>   -1.9445    1.0000 </r>
       <r>   -1.9029    1.0000 </r>
       <r>   -1.8513    1.0000 </r>
       <r>   -1.7822    1.0000 </r>
       <r>   -1.7266    1.0000 </r>
       <r>   -1.4615    1.0000 </r>
       <r>   -1.4172    1.0000 </r>
       <r>    0.2722    0.0000 </r>
       <r>    0.2903    0.0000 </r>
       <r>    0.4246    0.0000 </r>
       <r>    0.9593    0.0000 </r>
       <r>    0.9627    0.0000 </r>
       <r>    1.0073    0.0000 </r>
       <r>    1.2852    0.0000 </r>
       <r>    1.3959    0.0000 </r>
      </set>
      <set comment="kpoint 20">
       <r>  -16.0949    1.0000 </r>
       <r>  -15.9563    1.0000 </r>
       <r>  -15.8246    1.0000 </r>
       <r>  -15.8082    1.0000 </r>
       <r>  -12.7733    1.0000 </r>
       <r>  -12.7665    1.0000 </r>
       <r>  -12.7458    1.0000 </r>
       <r>  -12.7129    1.0000 </r>
       <r>   -5.2575    1.0000 </r>
       <r>   -5.1322    1.0000 </r>
       <r>   -5.0780    1.0000 </r>
       <r>   -4.9269    1.0000 </r>
       <r>   -4.4612    1.0000 </r>
       <r>   -4.3277    1.0000 </r>
       <r>   -4.1648    1.0000 </r>
       <r>   -4.1311    1.0000 </r>
       <r>   -2.3411    1.0000 </r>
       <r>   -1.9440    1.0000 </r>
       <r>   -1.9185    1.0000 </r>
       <r>   -1.8675    1.0000 </r>
       <r>   -1.7628    1.0000 </r>
       <r>   -1.5947    1.0000 </r>
       <r>   -1.5408    1.0000 </r>
       <r>   -1.4406    1.0000 </r>
       <r>    0.2674    0.0000 </r>
       <r>    0.3229    0.0000 </r>
       <r>    0.4021    0.0000 </r>
       <r>    0.9479    0.0000 </r>
       <r>    0.9639    0.0000 </r>
       <r>    0.9703    0.0000 </r>
       <r>    1.2963    0.0000 </r>
       <r>    1.4218    0.0000 </r>
      </set>
      <set comment="kpoint 21">
       <r>  -16.0951    1.0000 </r>
       <r>  -15.9569    1.0000 </r>
       <r>  -15.8242    1.0000 </r>
       <r>  -15.8078    1.0000 </r>
       <r>  -12.7728    1.0000 </r>
       <r>  -12.7670    1.0000 </r>
       <r>  -12.7458    1.0000 </r>
       <r>  -12.7131    1.0000 </r>
       <r>   -5.2578    1.0000 </r>
       <r>   -5.1311    1.0000 </r>
       <r>   -5.0775    1.0000 </r>
       <r>   -4.9274    1.0000 </r>
       <r>   -4.4628    1.0000 </r>
       <r>   -4.3261    1.0000 </r>
       <r>   -4.1657    1.0000 </r>
       <r>   -4.1319    1.0000 </r>
       <r>   -2.3369    1.0000 </r>
       <r>   -1.9418    1.0000 </r>
       <r>   -1.9158    1.0000 </r>
       <r>   -1.8697    1.0000 </r>
       <r>   -1.7651    1.0000 </r>
       <r>   -1.5926    1.0000 </r>
       <r>   -1.5461    1.0000 </r>
       <r>   -1.4422    1.0000 </r>
       <r>    0.2610    0.0000 </r>
       <r>    0.3166    0.0000 </r>
       <r>    0.4043    0.0000 </r>
       <r>    0.9518    0.0000 </r>
       <r>    0.9648    0.0000 </r>
       <r>    0.9703    0.0000 </r>
       <r>    1.3024    0.0000 </r>
       <r>    1.4240    0.0000 </r>
      </set>
      <set comment="kpoint 22">
       <r>  -16.0951    1.0000 </r>
       <r>  -15.9565    1.0000 </r>
       <r>  -15.8246    1.0000 </r>
       <r>  -15.8079    1.0000 </r>
       <r>  -12.7717    1.0000 </r>
       <r>  -12.7671    1.0000 </r>
       <r>  -12.7463    1.0000 </r>
       <r>  -12.7135    1.0000 </r>
       <r>   -5.2924    1.0000 </r>
       <r>   -5.2420    1.0000 </r>
       <r>   -4.7874    1.0000 </r>
       <r>   -4.7842    1.0000 </r>
       <r>   -4.7196    1.0000 </r>
       <r>   -4.5579    1.0000 </r>
       <r>   -4.0705    1.0000 </r>
       <r>   -4.0131    1.0000 </r>
       <r>   -2.3422    1.0000 </r>
       <r>   -1.9448    1.0000 </r>
       <r>   -1.8985    1.0000 </r>
       <r>   -1.8516    1.0000 </r>
       <r>   -1.7823    1.0000 </r>
       <r>   -1.7225    1.0000 </r>
       <r>   -1.4661    1.0000 </r>
       <r>   -1.4196    1.0000 </r>
       <r>    0.2748    0.0000 </r>
       <r>    0.2941    0.0000 </r>
       <r>    0.4248    0.0000 </r>
       <r>    0.9601    0.0000 </r>
       <r>    0.9625    0.0000 </r>
       <r>    1.0103    0.0000 </r>
       <r>    1.2780    0.0000 </r>
       <r>    1.3923    0.0000 </r>
      </set>
      <set comment="kpoint 23">
       <r>  -16.0952    1.0000 </r>
       <r>  -15.9569    1.0000 </r>
       <r>  -15.8240    1.0000 </r>
       <r>  -15.8079    1.0000 </r>
       <r>  -12.7727    1.0000 </r>
       <r>  -12.7686    1.0000 </r>
       <r>  -12.7446    1.0000 </r>
       <r>  -12.7127    1.0000 </r>
       <r>   -5.2917    1.0000 </r>
       <r>   -5.2435    1.0000 </r>
       <r>   -4.7848    1.0000 </r>
       <r>   -4.7837    1.0000 </r>
       <r>   -4.7180    1.0000 </r>
       <r>   -4.5612    1.0000 </r>
       <r>   -4.0682    1.0000 </r>
       <r>   -4.0143    1.0000 </r>
       <r>   -2.3429    1.0000 </r>
       <r>   -1.9447    1.0000 </r>
       <r>   -1.9029    1.0000 </r>
       <r>   -1.8510    1.0000 </r>
       <r>   -1.7826    1.0000 </r>
       <r>   -1.7260    1.0000 </r>
       <r>   -1.4623    1.0000 </r>
       <r>   -1.4166    1.0000 </r>
       <r>    0.2721    0.0000 </r>
       <r>    0.2899    0.0000 </r>
       <r>    0.4253    0.0000 </r>
       <r>    0.9593    0.0000 </r>
       <r>    0.9617    0.0000 </r>
       <r>    1.0080    0.0000 </r>
       <r>    1.2849    0.0000 </r>
       <r>    1.3963    0.0000 </r>
      </set>
      <set comment="kpoint 24">
       <r>  -16.0950    1.0000 </r>
       <r>  -15.9566    1.0000 </r>
       <r>  -15.8243    1.0000 </r>
       <r>  -15.8081    1.0000 </r>
       <r>  -12.7703    1.0000 </r>
       <r>  -12.7672    1.0000 </r>
       <r>  -12.7473    1.0000 </r>
       <r>  -12.7140    1.0000 </r>
       <r>   -5.2581    1.0000 </r>
       <r>   -5.1285    1.0000 </r>
       <r>   -5.0764    1.0000 </r>
       <r>   -4.9264    1.0000 </r>
       <r>   -4.4671    1.0000 </r>
       <r>   -4.3252    1.0000 </r>
       <r>   -4.1707    1.0000 </r>
       <r>   -4.1289    1.0000 </r>
       <r>   -2.3389    1.0000 </r>
       <r>   -1.9455    1.0000 </r>
       <r>   -1.9169    1.0000 </r>
       <r>   -1.8699    1.0000 </r>
       <r>   -1.7600    1.0000 </r>
       <r>   -1.5976    1.0000 </r>
       <r>   -1.5378    1.0000 </r>
       <r>   -1.4425    1.0000 </r>
       <r>    0.2650    0.0000 </r>
       <r>    0.3201    0.0000 </r>
       <r>    0.4059    0.0000 </r>
       <r>    0.9549    0.0000 </r>
       <r>    0.9644    0.0000 </r>
       <r>    0.9719    0.0000 </r>
       <r>    1.2931    0.0000 </r>
       <r>    1.4206    0.0000 </r>
      </set>
      <set comment="kpoint 25">
       <r>  -16.0949    1.0000 </r>
       <r>  -15.9564    1.0000 </r>
       <r>  -15.8245    1.0000 </r>
       <r>  -15.8083    1.0000 </r>
       <r>  -12.7724    1.0000 </r>
       <r>  -12.7693    1.0000 </r>
       <r>  -12.7441    1.0000 </r>
       <r>  -12.7127    1.0000 </r>
       <r>   -5.2920    1.0000 </r>
       <r>   -5.2426    1.0000 </r>
       <r>   -4.7859    1.0000 </r>
       <r>   -4.7825    1.0000 </r>
       <r>   -4.7192    1.0000 </r>
       <r>   -4.5607    1.0000 </r>
       <r>   -4.0682    1.0000 </r>
       <r>   -4.0153    1.0000 </r>
       <r>   -2.3451    1.0000 </r>
       <r>   -1.9494    1.0000 </r>
       <r>   -1.9018    1.0000 </r>
       <r>   -1.8471    1.0000 </r>
       <r>   -1.7804    1.0000 </r>
       <r>   -1.7234    1.0000 </r>
       <r>   -1.4626    1.0000 </r>
       <r>   -1.4170    1.0000 </r>
       <r>    0.2763    0.0000 </r>
       <r>    0.2975    0.0000 </r>
       <r>    0.4247    0.0000 </r>
       <r>    0.9546    0.0000 </r>
       <r>    0.9639    0.0000 </r>
       <r>    1.0054    0.0000 </r>
       <r>    1.2785    0.0000 </r>
       <r>    1.3954    0.0000 </r>
      </set>
      <set comment="kpoint 26">
       <r>  -16.0125    1.0000 </r>
       <r>  -15.9096    1.0000 </r>
       <r>  -15.9087    1.0000 </r>
       <r>  -15.8523    1.0000 </r>
       <r>  -12.7654    1.0000 </r>
       <r>  -12.7557    1.0000 </r>
       <r>  -12.7525    1.0000 </r>
       <r>  -12.7336    1.0000 </r>
       <r>   -5.2896    1.0000 </r>
       <r>   -5.2324    1.0000 </r>
       <r>   -5.0882    1.0000 </r>
       <r>   -5.0517    1.0000 </r>
       <r>   -4.3996    1.0000 </r>
       <r>   -4.3203    1.0000 </r>
       <r>   -4.0921    1.0000 </r>
       <r>   -4.0895    1.0000 </r>
       <r>   -2.1740    1.0000 </r>
       <r>   -1.9755    1.0000 </r>
       <r>   -1.9515    1.0000 </r>
       <r>   -1.9341    1.0000 </r>
       <r>   -1.6651    1.0000 </r>
       <r>   -1.6338    1.0000 </r>
       <r>   -1.5107    1.0000 </r>
       <r>   -1.4818    1.0000 </r>
       <r>    0.5093    0.0000 </r>
       <r>    0.5952    0.0000 </r>
       <r>    0.6442    0.0000 </r>
       <r>    0.9391    0.0000 </r>
       <r>    0.9767    0.0000 </r>
       <r>    1.0083    0.0000 </r>
       <r>    1.0689    0.0000 </r>
       <r>    1.0760    0.0000 </r>
      </set>
      <set comment="kpoint 27">
       <r>  -16.0126    1.0000 </r>
       <r>  -15.9107    1.0000 </r>
       <r>  -15.9076    1.0000 </r>
       <r>  -15.8522    1.0000 </r>
       <r>  -12.7651    1.0000 </r>
       <r>  -12.7558    1.0000 </r>
       <r>  -12.7528    1.0000 </r>
       <r>  -12.7334    1.0000 </r>
       <r>   -5.2908    1.0000 </r>
       <r>   -5.2332    1.0000 </r>
       <r>   -5.0889    1.0000 </r>
       <r>   -5.0545    1.0000 </r>
       <r>   -4.3959    1.0000 </r>
       <r>   -4.3194    1.0000 </r>
       <r>   -4.0902    1.0000 </r>
       <r>   -4.0883    1.0000 </r>
       <r>   -2.1732    1.0000 </r>
       <r>   -1.9717    1.0000 </r>
       <r>   -1.9524    1.0000 </r>
       <r>   -1.9347    1.0000 </r>
       <r>   -1.6700    1.0000 </r>
       <r>   -1.6339    1.0000 </r>
       <r>   -1.5106    1.0000 </r>
       <r>   -1.4827    1.0000 </r>
       <r>    0.5093    0.0000 </r>
       <r>    0.5915    0.0000 </r>
       <r>    0.6436    0.0000 </r>
       <r>    0.9360    0.0000 </r>
       <r>    0.9778    0.0000 </r>
       <r>    1.0100    0.0000 </r>
       <r>    1.0695    0.0000 </r>
       <r>    1.0765    0.0000 </r>
      </set>
      <set comment="kpoint 28">
       <r>  -16.0127    1.0000 </r>
       <r>  -15.9096    1.0000 </r>
       <r>  -15.9087    1.0000 </r>
       <r>  -15.8522    1.0000 </r>
       <r>  -12.7648    1.0000 </r>
       <r>  -12.7545    1.0000 </r>
       <r>  -12.7541    1.0000 </r>
       <r>  -12.7336    1.0000 </r>
       <r>   -5.2915    1.0000 </r>
       <r>   -5.2329    1.0000 </r>
       <r>   -5.0894    1.0000 </r>
       <r>   -5.0559    1.0000 </r>
       <r>   -4.3962    1.0000 </r>
       <r>   -4.3180    1.0000 </r>
       <r>   -4.0904    1.0000 </r>
       <r>   -4.0887    1.0000 </r>
       <r>   -2.1701    1.0000 </r>
       <r>   -1.9691    1.0000 </r>
       <r>   -1.9475    1.0000 </r>
       <r>   -1.9300    1.0000 </r>
       <r>   -1.6727    1.0000 </r>
       <r>   -1.6373    1.0000 </r>
       <r>   -1.5157    1.0000 </r>
       <r>   -1.4852    1.0000 </r>
       <r>    0.5061    0.0000 </r>
       <r>    0.5935    0.0000 </r>
       <r>    0.6408    0.0000 </r>
       <r>    0.9361    0.0000 </r>
       <r>    0.9752    0.0000 </r>
       <r>    1.0121    0.0000 </r>
       <r>    1.0732    0.0000 </r>
       <r>    1.0778    0.0000 </r>
      </set>
      <set comment="kpoint 29">
       <r>  -16.0126    1.0000 </r>
       <r>  -15.9093    1.0000 </r>
       <r>  -15.9088    1.0000 </r>
       <r>  -15.8524    1.0000 </r>
       <r>  -12.7643    1.0000 </r>
       <r>  -12.7555    1.0000 </r>
       <r>  -12.7537    1.0000 </r>
       <r>  -12.7337    1.0000 </r>
       <r>   -5.2908    1.0000 </r>
       <r>   -5.2306    1.0000 </r>
       <r>   -5.0869    1.0000 </r>
       <r>   -5.0536    1.0000 </r>
       <r>   -4.3996    1.0000 </r>
       <r>   -4.3193    1.0000 </r>
       <r>   -4.0920    1.0000 </r>
       <r>   -4.0903    1.0000 </r>
       <r>   -2.1744    1.0000 </r>
       <r>   -1.9744    1.0000 </r>
       <r>   -1.9521    1.0000 </r>
       <r>   -1.9354    1.0000 </r>
       <r>   -1.6672    1.0000 </r>
       <r>   -1.6331    1.0000 </r>
       <r>   -1.5080    1.0000 </r>
       <r>   -1.4822    1.0000 </r>
       <r>    0.5089    0.0000 </r>
       <r>    0.5973    0.0000 </r>
       <r>    0.6423    0.0000 </r>
       <r>    0.9386    0.0000 </r>
       <r>    0.9755    0.0000 </r>
       <r>    1.0116    0.0000 </r>
       <r>    1.0671    0.0000 </r>
       <r>    1.0766    0.0000 </r>
      </set>
      <set comment="kpoint 30">
       <r>  -16.0126    1.0000 </r>
       <r>  -15.9100    1.0000 </r>
       <r>  -15.9083    1.0000 </r>
       <r>  -15.8521    1.0000 </r>
       <r>  -12.7649    1.0000 </r>
       <r>  -12.7552    1.0000 </r>
       <r>  -12.7532    1.0000 </r>
       <r>  -12.7336    1.0000 </r>
       <r>   -5.2909    1.0000 </r>
       <r>   -5.2336    1.0000 </r>
       <r>   -5.0900    1.0000 </r>
       <r>   -5.0551    1.0000 </r>
       <r>   -4.3963    1.0000 </r>
       <r>   -4.3183    1.0000 </r>
       <r>   -4.0900    1.0000 </r>
       <r>   -4.0889    1.0000 </r>
       <r>   -2.1694    1.0000 </r>
       <r>   -1.9690    1.0000 </r>
       <r>   -1.9478    1.0000 </r>
       <r>   -1.9300    1.0000 </r>
       <r>   -1.6722    1.0000 </r>
       <r>   -1.6370    1.0000 </r>
       <r>   -1.5163    1.0000 </r>
       <r>   -1.4857    1.0000 </r>
       <r>    0.5065    0.0000 </r>
       <r>    0.5928    0.0000 </r>
       <r>    0.6411    0.0000 </r>
       <r>    0.9360    0.0000 </r>
       <r>    0.9756    0.0000 </r>
       <r>    1.0113    0.0000 </r>
       <r>    1.0732    0.0000 </r>
       <r>    1.0782    0.0000 </r>
      </set>
      <set comment="kpoint 31">
       <r>  -16.0126    1.0000 </r>
       <r>  -15.9105    1.0000 </r>
       <r>  -15.9077    1.0000 </r>
       <r>  -15.8523    1.0000 </r>
       <r>  -12.7655    1.0000 </r>
       <r>  -12.7557    1.0000 </r>
       <r>  -12.7526    1.0000 </r>
       <r>  -12.7333    1.0000 </r>
       <r>   -5.2906    1.0000 </r>
       <r>   -5.2335    1.0000 </r>
       <r>   -5.0891    1.0000 </r>
       <r>   -5.0541    1.0000 </r>
       <r>   -4.3960    1.0000 </r>
       <r>   -4.3196    1.0000 </r>
       <r>   -4.0894    1.0000 </r>
       <r>   -4.0888    1.0000 </r>
       <r>   -2.1736    1.0000 </r>
       <r>   -1.9725    1.0000 </r>
       <r>   -1.9517    1.0000 </r>
       <r>   -1.9338    1.0000 </r>
       <r>   -1.6693    1.0000 </r>
       <r>   -1.6347    1.0000 </r>
       <r>   -1.5116    1.0000 </r>
       <r>   -1.4817    1.0000 </r>
       <r>    0.5092    0.0000 </r>
       <r>    0.5910    0.0000 </r>
       <r>    0.6445    0.0000 </r>
       <r>    0.9363    0.0000 </r>
       <r>    0.9783    0.0000 </r>
       <r>    1.0088    0.0000 </r>
       <r>    1.0705    0.0000 </r>
       <r>    1.0757    0.0000 </r>
      </set>
      <set comment="kpoint 32">
       <r>  -16.1657    1.0000 </r>
       <r>  -15.8393    1.0000 </r>
       <r>  -15.8380    1.0000 </r>
       <r>  -15.8363    1.0000 </r>
       <r>  -12.7748    1.0000 </r>
       <r>  -12.7736    1.0000 </r>
       <r>  -12.7613    1.0000 </r>
       <r>  -12.6952    1.0000 </r>
       <r>   -5.3824    1.0000 </r>
       <r>   -5.0943    1.0000 </r>
       <r>   -5.0927    1.0000 </r>
       <r>   -4.6772    1.0000 </r>
       <r>   -4.5529    1.0000 </r>
       <r>   -4.5478    1.0000 </r>
       <r>   -3.9052    1.0000 </r>
       <r>   -3.9030    1.0000 </r>
       <r>   -2.6826    1.0000 </r>
       <r>   -2.0456    1.0000 </r>
       <r>   -2.0382    1.0000 </r>
       <r>   -1.9152    1.0000 </r>
       <r>   -1.7103    1.0000 </r>
       <r>   -1.4714    1.0000 </r>
       <r>   -1.4681    1.0000 </r>
       <r>   -1.2622    0.9999 </r>
       <r>    0.0614    0.0000 </r>
       <r>    0.0851    0.0000 </r>
       <r>    0.0886    0.0000 </r>
       <r>    1.0955    0.0000 </r>
       <r>    1.1044    0.0000 </r>
       <r>    1.1332    0.0000 </r>
       <r>    1.3674    0.0000 </r>
       <r>    1.3705    0.0000 </r>
      </set>
      <set comment="kpoint 33">
       <r>  -16.1657    1.0000 </r>
       <r>  -15.8397    1.0000 </r>
       <r>  -15.8378    1.0000 </r>
       <r>  -15.8361    1.0000 </r>
       <r>  -12.7748    1.0000 </r>
       <r>  -12.7716    1.0000 </r>
       <r>  -12.7631    1.0000 </r>
       <r>  -12.6955    1.0000 </r>
       <r>   -5.3826    1.0000 </r>
       <r>   -5.0948    1.0000 </r>
       <r>   -5.0921    1.0000 </r>
       <r>   -4.6768    1.0000 </r>
       <r>   -4.5518    1.0000 </r>
       <r>   -4.5490    1.0000 </r>
       <r>   -3.9060    1.0000 </r>
       <r>   -3.9022    1.0000 </r>
       <r>   -2.6829    1.0000 </r>
       <r>   -2.0438    1.0000 </r>
       <r>   -2.0395    1.0000 </r>
       <r>   -1.9162    1.0000 </r>
       <r>   -1.7116    1.0000 </r>
       <r>   -1.4727    1.0000 </r>
       <r>   -1.4652    1.0000 </r>
       <r>   -1.2622    0.9999 </r>
       <r>    0.0598    0.0000 </r>
       <r>    0.0859    0.0000 </r>
       <r>    0.0893    0.0000 </r>
       <r>    1.0964    0.0000 </r>
       <r>    1.1035    0.0000 </r>
       <r>    1.1340    0.0000 </r>
       <r>    1.3681    0.0000 </r>
       <r>    1.3693    0.0000 </r>
      </set>
      <set comment="kpoint 34">
       <r>  -16.1657    1.0000 </r>
       <r>  -15.8392    1.0000 </r>
       <r>  -15.8378    1.0000 </r>
       <r>  -15.8366    1.0000 </r>
       <r>  -12.7750    1.0000 </r>
       <r>  -12.7745    1.0000 </r>
       <r>  -12.7603    1.0000 </r>
       <r>  -12.6951    1.0000 </r>
       <r>   -5.3823    1.0000 </r>
       <r>   -5.0947    1.0000 </r>
       <r>   -5.0926    1.0000 </r>
       <r>   -4.6776    1.0000 </r>
       <r>   -4.5529    1.0000 </r>
       <r>   -4.5476    1.0000 </r>
       <r>   -3.9056    1.0000 </r>
       <r>   -3.9027    1.0000 </r>
       <r>   -2.6820    1.0000 </r>
       <r>   -2.0455    1.0000 </r>
       <r>   -2.0382    1.0000 </r>
       <r>   -1.9142    1.0000 </r>
       <r>   -1.7093    1.0000 </r>
       <r>   -1.4728    1.0000 </r>
       <r>   -1.4683    1.0000 </r>
       <r>   -1.2626    0.9999 </r>
       <r>    0.0625    0.0000 </r>
       <r>    0.0853    0.0000 </r>
       <r>    0.0875    0.0000 </r>
       <r>    1.0960    0.0000 </r>
       <r>    1.1037    0.0000 </r>
       <r>    1.1326    0.0000 </r>
       <r>    1.3679    0.0000 </r>
       <r>    1.3703    0.0000 </r>
      </set>
      <set comment="kpoint 35">
       <r>  -16.1658    1.0000 </r>
       <r>  -15.8395    1.0000 </r>
       <r>  -15.8380    1.0000 </r>
       <r>  -15.8361    1.0000 </r>
       <r>  -12.7752    1.0000 </r>
       <r>  -12.7716    1.0000 </r>
       <r>  -12.7627    1.0000 </r>
       <r>  -12.6954    1.0000 </r>
       <r>   -5.3827    1.0000 </r>
       <r>   -5.0943    1.0000 </r>
       <r>   -5.0922    1.0000 </r>
       <r>   -4.6768    1.0000 </r>
       <r>   -4.5518    1.0000 </r>
       <r>   -4.5492    1.0000 </r>
       <r>   -3.9061    1.0000 </r>
       <r>   -3.9018    1.0000 </r>
       <r>   -2.6836    1.0000 </r>
       <r>   -2.0445    1.0000 </r>
       <r>   -2.0398    1.0000 </r>
       <r>   -1.9164    1.0000 </r>
       <r>   -1.7114    1.0000 </r>
       <r>   -1.4723    1.0000 </r>
       <r>   -1.4652    1.0000 </r>
       <r>   -1.2613    0.9999 </r>
       <r>    0.0609    0.0000 </r>
       <r>    0.0854    0.0000 </r>
       <r>    0.0887    0.0000 </r>
       <r>    1.0962    0.0000 </r>
       <r>    1.1032    0.0000 </r>
       <r>    1.1345    0.0000 </r>
       <r>    1.3683    0.0000 </r>
       <r>    1.3692    0.0000 </r>
      </set>
      <set comment="kpoint 36">
       <r>  -16.0675    1.0000 </r>
       <r>  -15.9424    1.0000 </r>
       <r>  -15.8364    1.0000 </r>
       <r>  -15.8341    1.0000 </r>
       <r>  -12.7719    1.0000 </r>
       <r>  -12.7652    1.0000 </r>
       <r>  -12.7499    1.0000 </r>
       <r>  -12.7222    1.0000 </r>
       <r>   -5.3613    1.0000 </r>
       <r>   -5.2191    1.0000 </r>
       <r>   -5.0469    1.0000 </r>
       <r>   -4.9317    1.0000 </r>
       <r>   -4.4957    1.0000 </r>
       <r>   -4.4142    1.0000 </r>
       <r>   -3.9747    1.0000 </r>
       <r>   -3.9499    1.0000 </r>
       <r>   -2.3875    1.0000 </r>
       <r>   -2.0714    1.0000 </r>
       <r>   -1.9889    1.0000 </r>
       <r>   -1.9449    1.0000 </r>
       <r>   -1.6717    1.0000 </r>
       <r>   -1.5580    1.0000 </r>
       <r>   -1.4514    1.0000 </r>
       <r>   -1.3781    1.0000 </r>
       <r>    0.3587    0.0000 </r>
       <r>    0.3839    0.0000 </r>
       <r>    0.4850    0.0000 </r>
       <r>    0.9360    0.0000 </r>
       <r>    0.9746    0.0000 </r>
       <r>    1.0120    0.0000 </r>
       <r>    1.2034    0.0000 </r>
       <r>    1.2973    0.0000 </r>
      </set>
      <set comment="kpoint 37">
       <r>  -16.0675    1.0000 </r>
       <r>  -15.9423    1.0000 </r>
       <r>  -15.8360    1.0000 </r>
       <r>  -15.8347    1.0000 </r>
       <r>  -12.7707    1.0000 </r>
       <r>  -12.7689    1.0000 </r>
       <r>  -12.7478    1.0000 </r>
       <r>  -12.7218    1.0000 </r>
       <r>   -5.3615    1.0000 </r>
       <r>   -5.2193    1.0000 </r>
       <r>   -5.0472    1.0000 </r>
       <r>   -4.9320    1.0000 </r>
       <r>   -4.4919    1.0000 </r>
       <r>   -4.4169    1.0000 </r>
       <r>   -3.9731    1.0000 </r>
       <r>   -3.9504    1.0000 </r>
       <r>   -2.3891    1.0000 </r>
       <r>   -2.0727    1.0000 </r>
       <r>   -1.9926    1.0000 </r>
       <r>   -1.9439    1.0000 </r>
       <r>   -1.6696    1.0000 </r>
       <r>   -1.5586    1.0000 </r>
       <r>   -1.4496    1.0000 </r>
       <r>   -1.3763    1.0000 </r>
       <r>    0.3610    0.0000 </r>
       <r>    0.3852    0.0000 </r>
       <r>    0.4839    0.0000 </r>
       <r>    0.9352    0.0000 </r>
       <r>    0.9715    0.0000 </r>
       <r>    1.0093    0.0000 </r>
       <r>    1.2036    0.0000 </r>
       <r>    1.3001    0.0000 </r>
      </set>
      <set comment="kpoint 38">
       <r>  -16.0676    1.0000 </r>
       <r>  -15.9427    1.0000 </r>
       <r>  -15.8355    1.0000 </r>
       <r>  -15.8347    1.0000 </r>
       <r>  -12.7711    1.0000 </r>
       <r>  -12.7685    1.0000 </r>
       <r>  -12.7480    1.0000 </r>
       <r>  -12.7216    1.0000 </r>
       <r>   -5.3617    1.0000 </r>
       <r>   -5.2194    1.0000 </r>
       <r>   -5.0475    1.0000 </r>
       <r>   -4.9320    1.0000 </r>
       <r>   -4.4937    1.0000 </r>
       <r>   -4.4151    1.0000 </r>
       <r>   -3.9730    1.0000 </r>
       <r>   -3.9500    1.0000 </r>
       <r>   -2.3868    1.0000 </r>
       <r>   -2.0710    1.0000 </r>
       <r>   -1.9891    1.0000 </r>
       <r>   -1.9454    1.0000 </r>
       <r>   -1.6739    1.0000 </r>
       <r>   -1.5604    1.0000 </r>
       <r>   -1.4494    1.0000 </r>
       <r>   -1.3770    1.0000 </r>
       <r>    0.3580    0.0000 </r>
       <r>    0.3789    0.0000 </r>
       <r>    0.4838    0.0000 </r>
       <r>    0.9339    0.0000 </r>
       <r>    0.9764    0.0000 </r>
       <r>    1.0103    0.0000 </r>
       <r>    1.2091    0.0000 </r>
       <r>    1.3000    0.0000 </r>
      </set>
      <set comment="kpoint 39">
       <r>  -16.0675    1.0000 </r>
       <r>  -15.9422    1.0000 </r>
       <r>  -15.8362    1.0000 </r>
       <r>  -15.8346    1.0000 </r>
       <r>  -12.7708    1.0000 </r>
       <r>  -12.7679    1.0000 </r>
       <r>  -12.7487    1.0000 </r>
       <r>  -12.7219    1.0000 </r>
       <r>   -5.3617    1.0000 </r>
       <r>   -5.2188    1.0000 </r>
       <r>   -5.0483    1.0000 </r>
       <r>   -4.9309    1.0000 </r>
       <r>   -4.4934    1.0000 </r>
       <r>   -4.4156    1.0000 </r>
       <r>   -3.9731    1.0000 </r>
       <r>   -3.9504    1.0000 </r>
       <r>   -2.3894    1.0000 </r>
       <r>   -2.0713    1.0000 </r>
       <r>   -1.9909    1.0000 </r>
       <r>   -1.9461    1.0000 </r>
       <r>   -1.6722    1.0000 </r>
       <r>   -1.5586    1.0000 </r>
       <r>   -1.4473    1.0000 </r>
       <r>   -1.3768    1.0000 </r>
       <r>    0.3618    0.0000 </r>
       <r>    0.3853    0.0000 </r>
       <r>    0.4821    0.0000 </r>
       <r>    0.9360    0.0000 </r>
       <r>    0.9721    0.0000 </r>
       <r>    1.0095    0.0000 </r>
       <r>    1.2050    0.0000 </r>
       <r>    1.2981    0.0000 </r>
      </set>
      <set comment="kpoint 40">
       <r>  -16.0675    1.0000 </r>
       <r>  -15.9424    1.0000 </r>
       <r>  -15.8367    1.0000 </r>
       <r>  -15.8338    1.0000 </r>
       <r>  -12.7688    1.0000 </r>
       <r>  -12.7682    1.0000 </r>
       <r>  -12.7496    1.0000 </r>
       <r>  -12.7226    1.0000 </r>
       <r>   -5.3616    1.0000 </r>
       <r>   -5.2187    1.0000 </r>
       <r>   -5.0471    1.0000 </r>
       <r>   -4.9318    1.0000 </r>
       <r>   -4.4944    1.0000 </r>
       <r>   -4.4152    1.0000 </r>
       <r>   -3.9757    1.0000 </r>
       <r>   -3.9490    1.0000 </r>
       <r>   -2.3873    1.0000 </r>
       <r>   -2.0716    1.0000 </r>
       <r>   -1.9900    1.0000 </r>
       <r>   -1.9446    1.0000 </r>
       <r>   -1.6725    1.0000 </r>
       <r>   -1.5569    1.0000 </r>
       <r>   -1.4518    1.0000 </r>
       <r>   -1.3775    1.0000 </r>
       <r>    0.3597    0.0000 </r>
       <r>    0.3820    0.0000 </r>
       <r>    0.4860    0.0000 </r>
       <r>    0.9352    0.0000 </r>
       <r>    0.9774    0.0000 </r>
       <r>    1.0100    0.0000 </r>
       <r>    1.2026    0.0000 </r>
       <r>    1.2982    0.0000 </r>
      </set>
      <set comment="kpoint 41">
       <r>  -16.0676    1.0000 </r>
[...]
       <r>  -12.7577    1.0000 </r>
       <r>   -5.4202    1.0000 </r>
       <r>   -5.3475    1.0000 </r>
       <r>   -5.3464    1.0000 </r>
       <r>   -5.3204    1.0000 </r>
       <r>   -3.9399    1.0000 </r>
       <r>   -3.9385    1.0000 </r>
       <r>   -3.7552    1.0000 </r>
       <r>   -3.7537    1.0000 </r>
       <r>   -2.5130    1.0000 </r>
       <r>   -2.4180    1.0000 </r>
       <r>   -2.3594    1.0000 </r>
       <r>   -2.3574    1.0000 </r>
       <r>   -1.3168    1.0000 </r>
       <r>   -1.2801    0.9999 </r>
       <r>   -1.2770    0.9999 </r>
       <r>   -1.2448    0.9998 </r>
       <r>    0.6835    0.0000 </r>
       <r>    0.6863    0.0000 </r>
       <r>    0.7673    0.0000 </r>
       <r>    0.8366    0.0000 </r>
       <r>    0.8390    0.0000 </r>
       <r>    0.9382    0.0000 </r>
       <r>    0.9398    0.0000 </r>
       <r>    0.9428    0.0000 </r>
      </set>
      <set comment="kpoint 62">
       <r>  -15.9526    1.0000 </r>
       <r>  -15.9042    1.0000 </r>
       <r>  -15.9030    1.0000 </r>
       <r>  -15.9014    1.0000 </r>
       <r>  -12.7698    1.0000 </r>
       <r>  -12.7689    1.0000 </r>
       <r>  -12.7624    1.0000 </r>
       <r>  -12.7566    1.0000 </r>
       <r>   -5.4201    1.0000 </r>
       <r>   -5.3470    1.0000 </r>
       <r>   -5.3460    1.0000 </r>
       <r>   -5.3214    1.0000 </r>
       <r>   -3.9408    1.0000 </r>
       <r>   -3.9382    1.0000 </r>
       <r>   -3.7548    1.0000 </r>
       <r>   -3.7538    1.0000 </r>
       <r>   -2.5122    1.0000 </r>
       <r>   -2.4158    1.0000 </r>
       <r>   -2.3610    1.0000 </r>
       <r>   -2.3581    1.0000 </r>
       <r>   -1.3147    1.0000 </r>
       <r>   -1.2802    0.9999 </r>
       <r>   -1.2792    0.9999 </r>
       <r>   -1.2448    0.9998 </r>
       <r>    0.6820    0.0000 </r>
       <r>    0.6846    0.0000 </r>
       <r>    0.7707    0.0000 </r>
       <r>    0.8377    0.0000 </r>
       <r>    0.8408    0.0000 </r>
       <r>    0.9375    0.0000 </r>
       <r>    0.9388    0.0000 </r>
       <r>    0.9413    0.0000 </r>
      </set>
      <set comment="kpoint 63">
       <r>  -15.9527    1.0000 </r>
       <r>  -15.9043    1.0000 </r>
       <r>  -15.9029    1.0000 </r>
       <r>  -15.9013    1.0000 </r>
       <r>  -12.7694    1.0000 </r>
       <r>  -12.7671    1.0000 </r>
       <r>  -12.7637    1.0000 </r>
       <r>  -12.7575    1.0000 </r>
       <r>   -5.4204    1.0000 </r>
       <r>   -5.3472    1.0000 </r>
       <r>   -5.3464    1.0000 </r>
       <r>   -5.3206    1.0000 </r>
       <r>   -3.9400    1.0000 </r>
       <r>   -3.9385    1.0000 </r>
       <r>   -3.7553    1.0000 </r>
       <r>   -3.7532    1.0000 </r>
       <r>   -2.5140    1.0000 </r>
       <r>   -2.4181    1.0000 </r>
       <r>   -2.3592    1.0000 </r>
       <r>   -2.3571    1.0000 </r>
       <r>   -1.3164    1.0000 </r>
       <r>   -1.2803    0.9999 </r>
       <r>   -1.2777    0.9999 </r>
       <r>   -1.2438    0.9998 </r>
       <r>    0.6823    0.0000 </r>
       <r>    0.6865    0.0000 </r>
       <r>    0.7678    0.0000 </r>
       <r>    0.8376    0.0000 </r>
       <r>    0.8388    0.0000 </r>
       <r>    0.9385    0.0000 </r>
       <r>    0.9396    0.0000 </r>
       <r>    0.9424    0.0000 </r>
      </set>
     </set>
    </set>
   </array>
  </eigenvalues>
  <separator name="orbital magnetization" >
   <v name="MAGDIPOLOUT">      0.00000000      0.00000000      0.00000000</v>
  </separator>
  <dos>
   <i name="efermi">     -0.74919176 </i>
   <total>
    <array>
     <dimension dim="1">gridpoints</dimension>
     <dimension dim="2">spin</dimension>
     <field>energy</field>
     <field>total</field>
     <field>integrated</field>
     <set>
      <set comment="spin 1">
       <r>   -18.2857     0.0000     0.0000 </r>
       <r>   -18.2125     0.0000     0.0000 </r>
       <r>   -18.1394     0.0000     0.0000 </r>
       <r>   -18.0663     0.0000     0.0000 </r>
       <r>   -17.9932     0.0000     0.0000 </r>
       <r>   -17.9201     0.0000     0.0000 </r>
       <r>   -17.8469     0.0000     0.0000 </r>
       <r>   -17.7738     0.0000     0.0000 </r>
       <r>   -17.7007     0.0000     0.0000 </r>
       <r>   -17.6276     0.0000     0.0000 </r>
       <r>   -17.5545     0.0000     0.0000 </r>
       <r>   -17.4813     0.0000     0.0000 </r>
       <r>   -17.4082     0.0000     0.0000 </r>
       <r>   -17.3351     0.0000     0.0000 </r>
       <r>   -17.2620     0.0000     0.0000 </r>
       <r>   -17.1889     0.0000     0.0000 </r>
       <r>   -17.1157     0.0000     0.0000 </r>
       <r>   -17.0426     0.0000     0.0000 </r>
       <r>   -16.9695     0.0000     0.0000 </r>
       <r>   -16.8964     0.0000     0.0000 </r>
       <r>   -16.8233     0.0001     0.0000 </r>
       <r>   -16.7501     0.0005     0.0000 </r>
       <r>   -16.6770     0.0030     0.0003 </r>
       <r>   -16.6039     0.0156     0.0014 </r>
       <r>   -16.5308     0.0646     0.0061 </r>
       <r>   -16.4577     0.2163     0.0219 </r>
       <r>   -16.3845     0.5961     0.0655 </r>
       <r>   -16.3114     1.3828     0.1666 </r>
       <r>   -16.2383     2.7796     0.3699 </r>
       <r>   -16.1652     4.9875     0.7346 </r>
       <r>   -16.0921     8.1439     1.3301 </r>
       <r>   -16.0189    12.0764     2.2131 </r>
       <r>   -15.9458    15.9031     3.3759 </r>
       <r>   -15.8727    18.0322     4.6944 </r>
       <r>   -15.7996    17.1112     5.9456 </r>
       <r>   -15.7265    13.2960     6.9178 </r>
       <r>   -15.6533     8.3297     7.5269 </r>
       <r>   -15.5802     4.1616     7.8312 </r>
       <r>   -15.5071     1.6451     7.9515 </r>
       <r>   -15.4340     0.5116     7.9889 </r>
       <r>   -15.3609     0.1246     7.9980 </r>
       <r>   -15.2877     0.0237     7.9997 </r>
       <r>   -15.2146     0.0035     8.0000 </r>
       <r>   -15.1415     0.0004     8.0000 </r>
       <r>   -15.0684     0.0000     8.0000 </r>
       <r>   -14.9953     0.0000     8.0000 </r>
       <r>   -14.9221     0.0000     8.0000 </r>
       <r>   -14.8490     0.0000     8.0000 </r>
       <r>   -14.7759     0.0000     8.0000 </r>
       <r>   -14.7028     0.0000     8.0000 </r>
       <r>   -14.6297     0.0000     8.0000 </r>
       <r>   -14.5565     0.0000     8.0000 </r>
       <r>   -14.4834     0.0000     8.0000 </r>
       <r>   -14.4103     0.0000     8.0000 </r>
       <r>   -14.3372     0.0000     8.0000 </r>
       <r>   -14.2641     0.0000     8.0000 </r>
       <r>   -14.1909     0.0000     8.0000 </r>
       <r>   -14.1178     0.0000     8.0000 </r>
       <r>   -14.0447     0.0000     8.0000 </r>
       <r>   -13.9716     0.0000     8.0000 </r>
       <r>   -13.8985     0.0000     8.0000 </r>
       <r>   -13.8253     0.0000     8.0000 </r>
       <r>   -13.7522     0.0000     8.0000 </r>
       <r>   -13.6791     0.0000     8.0000 </r>
       <r>   -13.6060     0.0000     8.0000 </r>
       <r>   -13.5329     0.0000     8.0000 </r>
       <r>   -13.4597     0.0000     8.0000 </r>
       <r>   -13.3866     0.0005     8.0000 </r>
       <r>   -13.3135     0.0043     8.0004 </r>
       <r>   -13.2404     0.0310     8.0026 </r>
       <r>   -13.1673     0.1713     8.0151 </r>
       <r>   -13.0941     0.7315     8.0686 </r>
       <r>   -13.0210     2.4133     8.2451 </r>
       <r>   -12.9479     6.1543     8.6951 </r>
       <r>   -12.8748    12.1401     9.5828 </r>
       <r>   -12.8017    18.5383    10.9383 </r>
       <r>   -12.7285    21.9320    12.5420 </r>
       <r>   -12.6554    20.1201    14.0131 </r>
       <r>   -12.5823    14.3262    15.0607 </r>
       <r>   -12.5092     7.9252    15.6402 </r>
       <r>   -12.4361     3.4096    15.8895 </r>
       <r>   -12.3629     1.1420    15.9730 </r>
       <r>   -12.2898     0.2980    15.9948 </r>
       <r>   -12.2167     0.0607    15.9992 </r>
       <r>   -12.1436     0.0096    15.9999 </r>
       <r>   -12.0705     0.0012    16.0000 </r>
       <r>   -11.9973     0.0001    16.0000 </r>
       <r>   -11.9242     0.0000    16.0000 </r>
       <r>   -11.8511     0.0000    16.0000 </r>
       <r>   -11.7780     0.0000    16.0000 </r>
       <r>   -11.7049     0.0000    16.0000 </r>
       <r>   -11.6317     0.0000    16.0000 </r>
       <r>   -11.5586     0.0000    16.0000 </r>
       <r>   -11.4855     0.0000    16.0000 </r>
       <r>   -11.4124     0.0000    16.0000 </r>
       <r>   -11.3393     0.0000    16.0000 </r>
       <r>   -11.2661     0.0000    16.0000 </r>
       <r>   -11.1930     0.0000    16.0000 </r>
       <r>   -11.1199     0.0000    16.0000 </r>
       <r>   -11.0468     0.0000    16.0000 </r>
       <r>   -10.9737     0.0000    16.0000 </r>
       <r>   -10.9005     0.0000    16.0000 </r>
       <r>   -10.8274     0.0000    16.0000 </r>
       <r>   -10.7543     0.0000    16.0000 </r>
       <r>   -10.6812     0.0000    16.0000 </r>
       <r>   -10.6081     0.0000    16.0000 </r>
       <r>   -10.5349     0.0000    16.0000 </r>
       <r>   -10.4618     0.0000    16.0000 </r>
       <r>   -10.3887     0.0000    16.0000 </r>
       <r>   -10.3156     0.0000    16.0000 </r>
       <r>   -10.2425     0.0000    16.0000 </r>
       <r>   -10.1693     0.0000    16.0000 </r>
       <r>   -10.0962     0.0000    16.0000 </r>
       <r>   -10.0231     0.0000    16.0000 </r>
       <r>    -9.9500     0.0000    16.0000 </r>
       <r>    -9.8769     0.0000    16.0000 </r>
       <r>    -9.8037     0.0000    16.0000 </r>
       <r>    -9.7306     0.0000    16.0000 </r>
       <r>    -9.6575     0.0000    16.0000 </r>
       <r>    -9.5844     0.0000    16.0000 </r>
       <r>    -9.5113     0.0000    16.0000 </r>
       <r>    -9.4381     0.0000    16.0000 </r>
       <r>    -9.3650     0.0000    16.0000 </r>
       <r>    -9.2919     0.0000    16.0000 </r>
       <r>    -9.2188     0.0000    16.0000 </r>
       <r>    -9.1457     0.0000    16.0000 </r>
       <r>    -9.0725     0.0000    16.0000 </r>
       <r>    -8.9994     0.0000    16.0000 </r>
       <r>    -8.9263     0.0000    16.0000 </r>
       <r>    -8.8532     0.0000    16.0000 </r>
       <r>    -8.7801     0.0000    16.0000 </r>
       <r>    -8.7070     0.0000    16.0000 </r>
       <r>    -8.6338     0.0000    16.0000 </r>
       <r>    -8.5607     0.0000    16.0000 </r>
       <r>    -8.4876     0.0000    16.0000 </r>
       <r>    -8.4145     0.0000    16.0000 </r>
       <r>    -8.3414     0.0000    16.0000 </r>
       <r>    -8.2682     0.0000    16.0000 </r>
       <r>    -8.1951     0.0000    16.0000 </r>
       <r>    -8.1220     0.0000    16.0000 </r>
       <r>    -8.0489     0.0000    16.0000 </r>
       <r>    -7.9758     0.0000    16.0000 </r>
       <r>    -7.9026     0.0000    16.0000 </r>
       <r>    -7.8295     0.0000    16.0000 </r>
       <r>    -7.7564     0.0000    16.0000 </r>
       <r>    -7.6833     0.0000    16.0000 </r>
       <r>    -7.6102     0.0000    16.0000 </r>
       <r>    -7.5370     0.0000    16.0000 </r>
       <r>    -7.4639     0.0000    16.0000 </r>
       <r>    -7.3908     0.0000    16.0000 </r>
       <r>    -7.3177     0.0000    16.0000 </r>
       <r>    -7.2446     0.0000    16.0000 </r>
       <r>    -7.1714     0.0000    16.0000 </r>
       <r>    -7.0983     0.0000    16.0000 </r>
       <r>    -7.0252     0.0000    16.0000 </r>
       <r>    -6.9521     0.0000    16.0000 </r>
       <r>    -6.8790     0.0000    16.0000 </r>
       <r>    -6.8058     0.0000    16.0000 </r>
       <r>    -6.7327     0.0000    16.0000 </r>
       <r>    -6.6596     0.0000    16.0000 </r>
       <r>    -6.5865     0.0000    16.0000 </r>
       <r>    -6.5134     0.0000    16.0000 </r>
       <r>    -6.4402     0.0000    16.0000 </r>
       <r>    -6.3671     0.0000    16.0000 </r>
       <r>    -6.2940     0.0000    16.0000 </r>
       <r>    -6.2209     0.0000    16.0000 </r>
       <r>    -6.1478     0.0000    16.0000 </r>
       <r>    -6.0746     0.0000    16.0000 </r>
       <r>    -6.0015     0.0001    16.0000 </r>
       <r>    -5.9284     0.0008    16.0001 </r>
       <r>    -5.8553     0.0058    16.0005 </r>
       <r>    -5.7822     0.0332    16.0029 </r>
       <r>    -5.7090     0.1483    16.0138 </r>
       <r>    -5.6359     0.5264    16.0523 </r>
       <r>    -5.5628     1.4927    16.1614 </r>
       <r>    -5.4897     3.4161    16.4112 </r>
       <r>    -5.4166     6.3835    16.8779 </r>
       <r>    -5.3434     9.8743    17.6000 </r>
       <r>    -5.2703    12.8437    18.5391 </r>
       <r>    -5.1972    14.3015    19.5848 </r>
       <r>    -5.1241    13.9086    20.6018 </r>
       <r>    -5.0510    12.0804    21.4851 </r>
       <r>    -4.9778     9.6316    22.1894 </r>
       <r>    -4.9047     7.3505    22.7269 </r>
       <r>    -4.8316     5.7412    23.1466 </r>
       <r>    -4.7585     4.9716    23.5102 </r>
       <r>    -4.6854     4.9945    23.8754 </r>
       <r>    -4.6122     5.6751    24.2903 </r>
       <r>    -4.5391     6.7613    24.7847 </r>
       <r>    -4.4660     7.8285    25.3571 </r>
       <r>    -4.3929     8.4716    25.9766 </r>
       <r>    -4.3198     8.6314    26.6077 </r>
       <r>    -4.2466     8.6342    27.2390 </r>
       <r>    -4.1735     8.8833    27.8886 </r>
       <r>    -4.1004     9.5316    28.5855 </r>
       <r>    -4.0273    10.2985    29.3386 </r>
       <r>    -3.9542    10.4965    30.1061 </r>
       <r>    -3.8810     9.4809    30.7993 </r>
       <r>    -3.8079     7.2925    31.3325 </r>
       <r>    -3.7348     4.7058    31.6766 </r>
       <r>    -3.6617     2.5593    31.8637 </r>
       <r>    -3.5886     1.1939    31.9510 </r>
       <r>    -3.5154     0.4934    31.9871 </r>
       <r>    -3.4423     0.1965    32.0015 </r>
       <r>    -3.3692     0.0918    32.0082 </r>
       <r>    -3.2961     0.0617    32.0127 </r>
       <r>    -3.2230     0.0651    32.0175 </r>
       <r>    -3.1498     0.1061    32.0252 </r>
       <r>    -3.0767     0.1992    32.0398 </r>
       <r>    -3.0036     0.3470    32.0652 </r>
       <r>    -2.9305     0.5380    32.1045 </r>
       <r>    -2.8574     0.7522    32.1595 </r>
       <r>    -2.7842     0.9624    32.2299 </r>
       <r>    -2.7111     1.1662    32.3151 </r>
       <r>    -2.6380     1.4668    32.4224 </r>
       <r>    -2.5649     2.0913    32.5753 </r>
       <r>    -2.4918     3.2105    32.8101 </r>
       <r>    -2.4186     4.6976    33.1536 </r>
       <r>    -2.3455     6.2057    33.6073 </r>
       <r>    -2.2724     7.5991    34.1630 </r>
       <r>    -2.1993     9.1369    34.8310 </r>
       <r>    -2.1262    11.0226    35.6370 </r>
       <r>    -2.0530    12.8986    36.5802 </r>
       <r>    -1.9799    13.9924    37.6033 </r>
       <r>    -1.9068    13.7863    38.6113 </r>
       <r>    -1.8337    12.5653    39.5301 </r>
       <r>    -1.7606    11.3443    40.3596 </r>
       <r>    -1.6874    11.1731    41.1766 </r>
       <r>    -1.6143    12.3833    42.0820 </r>
       <r>    -1.5412    14.3297    43.1298 </r>
       <r>    -1.4681    15.7272    44.2798 </r>
       <r>    -1.3950    15.4193    45.4073 </r>
       <r>    -1.3218    13.1505    46.3688 </r>
       <r>    -1.2487     9.6947    47.0777 </r>
       <r>    -1.1756     6.2065    47.5315 </r>
       <r>    -1.1025     3.4789    47.7859 </r>
       <r>    -1.0294     1.7195    47.9116 </r>
       <r>    -0.9562     0.7544    47.9668 </r>
       <r>    -0.8831     0.2981    47.9886 </r>
       <r>    -0.8100     0.1119    47.9968 </r>
       <r>    -0.7369     0.0521    48.0006 </r>
       <r>    -0.6638     0.0551    48.0046 </r>
       <r>    -0.5906     0.1021    48.0121 </r>
       <r>    -0.5175     0.1961    48.0264 </r>
       <r>    -0.4444     0.3586    48.0526 </r>
       <r>    -0.3713     0.6255    48.0984 </r>
       <r>    -0.2982     1.0211    48.1730 </r>
       <r>    -0.2250     1.5263    48.2846 </r>
       <r>    -0.1519     2.0756    48.4364 </r>
       <r>    -0.0788     2.5810    48.6251 </r>
       <r>    -0.0057     2.9877    48.8436 </r>
       <r>     0.0674     3.3649    49.0896 </r>
       <r>     0.1406     3.9272    49.3768 </r>
       <r>     0.2137     4.8653    49.7325 </r>
       <r>     0.2868     6.1026    50.1787 </r>
       <r>     0.3599     7.2810    50.7111 </r>
       <r>     0.4330     8.0561    51.3002 </r>
       <r>     0.5062     8.3547    51.9111 </r>
       <r>     0.5793     8.3193    52.5194 </r>
       <r>     0.6524     8.2161    53.1202 </r>
       <r>     0.7255     8.5978    53.7488 </r>
       <r>     0.7986    10.2701    54.4998 </r>
       <r>     0.8718    13.4987    55.4868 </r>
       <r>     0.9449    17.1465    56.7405 </r>
       <r>     1.0180    19.1772    58.1428 </r>
       <r>     1.0911    18.4102    59.4889 </r>
       <r>     1.1642    15.5276    60.6243 </r>
       <r>     1.2374    12.1952    61.5160 </r>
       <r>     1.3105     9.5376    62.2134 </r>
       <r>     1.3836     7.6191    62.7705 </r>
       <r>     1.4567     6.0043    63.2095 </r>
       <r>     1.5298     4.4302    63.5335 </r>
       <r>     1.6030     2.9631    63.7501 </r>
       <r>     1.6761     1.7750    63.8799 </r>
       <r>     1.7492     0.9455    63.9491 </r>
       <r>     1.8223     0.4414    63.9813 </r>
       <r>     1.8954     0.1764    63.9942 </r>
       <r>     1.9686     0.0587    63.9985 </r>
       <r>     2.0417     0.0159    63.9997 </r>
       <r>     2.1148     0.0034    64.0000 </r>
       <r>     2.1879     0.0006    64.0000 </r>
       <r>     2.2610     0.0001    64.0000 </r>
       <r>     2.3342     0.0000    64.0000 </r>
       <r>     2.4073     0.0000    64.0000 </r>
       <r>     2.4804     0.0000    64.0000 </r>
       <r>     2.5535     0.0000    64.0000 </r>
       <r>     2.6266     0.0000    64.0000 </r>
       <r>     2.6998     0.0000    64.0000 </r>
       <r>     2.7729     0.0000    64.0000 </r>
       <r>     2.8460     0.0000    64.0000 </r>
       <r>     2.9191     0.0000    64.0000 </r>
       <r>     2.9922     0.0000    64.0000 </r>
       <r>     3.0654     0.0000    64.0000 </r>
       <r>     3.1385     0.0000    64.0000 </r>
       <r>     3.2116     0.0000    64.0000 </r>
       <r>     3.2847     0.0000    64.0000 </r>
       <r>     3.3578     0.0000    64.0000 </r>
       <r>     3.4310     0.0000    64.0000 </r>
       <r>     3.5041     0.0000    64.0000 </r>
       <r>     3.5772     0.0000    64.0000 </r>
       <r>     3.6503     0.0000    64.0000 </r>
      </set>
     </set>
    </array>
   </total>
  </dos>
 </calculation>
 <structure name="finalpos" >
  <crystal>
   <varray name="basis" >
    <v>       5.55000135       0.00000000       0.00000000 </v>
    <v>       0.00000000       5.55000135       0.00000000 </v>
    <v>       0.00000000       0.00000000       5.55000135 </v>
   </varray>
   <i name="volume">    170.95400000 </i>
   <varray name="rec_basis" >
    <v>       0.18018014       0.00000000       0.00000000 </v>
    <v>       0.00000000       0.18018014       0.00000000 </v>
    <v>       0.00000000       0.00000000       0.18018014 </v>
   </varray>
  </crystal>
  <varray name="positions" >
   <v>       0.00015993       0.00023419       0.00000559 </v>
   <v>       0.49992225       0.99971461       0.50008182 </v>
   <v>       0.00016658       0.50047013       0.50009409 </v>
   <v>       0.50040726       0.49974500       0.00032315 </v>
   <v>       0.87858184       0.87807629       0.12113507 </v>
   <v>       0.12174634       0.12238626       0.87887991 </v>
   <v>       0.62150582       0.87776879       0.62141395 </v>
   <v>       0.37835823       0.12167251       0.37874238 </v>
   <v>       0.12166629       0.62283988       0.62108541 </v>
   <v>       0.87867452       0.37809371       0.37910556 </v>
   <v>       0.62209134       0.37783887       0.87905199 </v>
   <v>       0.37871961       0.62165978       0.12158108 </v>
  </varray>
 </structure>
</modeling>
