CO2 crystal - PBE                       
           1
     5.550001    0.000000    0.000000
     0.000000    5.550001    0.000000
     0.000000    0.000000    5.550001
   C    O 
     4     8
Direct configuration=     1
   0.00015993  0.00023419  0.00000559
   0.49992225  0.99971461  0.50008182
   0.00016658  0.50047013  0.50009409
   0.50040726  0.49974500  0.00032315
   0.87858184  0.87807629  0.12113507
   0.12174634  0.12238626  0.87887991
   0.62150582  0.87776879  0.62141395
   0.37835823  0.12167251  0.37874238
   0.12166629  0.62283988  0.62108541
   0.87867452  0.37809371  0.37910556
   0.62209134  0.37783887  0.87905199
   0.37871961  0.62165978  0.12158108
