fcc Si                                  
   3.8999999999999999     
     0.000000    0.500000    0.500000
     0.500000    0.000000    0.500000
     0.500000    0.500000    0.000000
   Si
     1
Direct
  0.000000  0.000000  0.000000

   20   20   20
 -2.5622     -1.7637     0.29447      2.7791      4.7913      5.7921      5.7892      5.2169      4.6020      4.1822    
  4.0345      4.1822      4.6020      5.2169      5.7892      5.7921      4.7913      2.7791     0.29447     -1.7637    
 -1.7637     -.33812      1.9107      4.0986      5.5048      5.8842      5.4906      4.8423      4.3159      4.0298    
  4.0299      4.3161      4.8422      5.4904      5.8842      5.5052      4.0988      1.9102     -.33893     -1.7641    
 0.29447      1.9107      3.8141      5.2688      5.8597      5.6409      5.0163      4.4190      4.0181      3.8781    
  4.0181      4.4190      5.0163      5.6408      5.8597      5.2688      3.8141      1.9105     0.29435     -.33893    
  2.7791      4.0986      5.2688      5.8338      5.6981      5.1182      4.4864      4.0044      3.7476      3.7475    
  4.0042      4.4863      5.1183      5.6981      5.8336      5.2687      4.0989      2.7797      1.9105      1.9102    
  4.7913      5.5048      5.8597      5.6981      5.1511      4.5190      3.9935      3.6536      3.5369      3.6536    
  3.9935      4.5190      5.1512      5.6981      5.8597      5.5049      4.7914      4.0989      3.8141      4.0988    
  5.7921      5.8842      5.6409      5.1182      4.5190      3.9895      3.6049      3.4054      3.4054      3.6050    
  3.9895      4.5190      5.1183      5.6410      5.8842      5.7918      5.5049      5.2687      5.2688      5.5052    
  5.7892      5.4906      5.0163      4.4864      3.9935      3.6049      3.3610      3.2785      3.3611      3.6049    
  3.9935      4.4863      5.0163      5.4907      5.7893      5.8842      5.8597      5.8336      5.8597      5.8842    
  5.2169      4.8423      4.4190      4.0044      3.6536      3.4054      3.2785      3.2786      3.4054      3.6535    
  4.0042      4.4189      4.8423      5.2171      5.4907      5.6410      5.6981      5.6981      5.6408      5.4904    
  4.6020      4.3159      4.0181      3.7476      3.5369      3.4054      3.3611      3.4054      3.5369      3.7476    
  4.0181      4.3159      4.6020      4.8423      5.0163      5.1183      5.1512      5.1183      5.0163      4.8422    
  4.1822      4.0298      3.8781      3.7475      3.6536      3.6050      3.6049      3.6535      3.7476      3.8784    
  4.0299      4.1821      4.3159      4.4189      4.4863      4.5190      4.5190      4.4863      4.4190      4.3161    
  4.0345      4.0299      4.0181      4.0042      3.9935      3.9895      3.9935      4.0042      4.0181      4.0299    
  4.0346      4.0299      4.0181      4.0042      3.9935      3.9895      3.9935      4.0042      4.0181      4.0299    
  4.1822      4.3161      4.4190      4.4863      4.5190      4.5190      4.4863      4.4189      4.3159      4.1821    
  4.0299      3.8784      3.7476      3.6535      3.6049      3.6050      3.6536      3.7475      3.8781      4.0298    
  4.6020      4.8422      5.0163      5.1183      5.1512      5.1183      5.0163      4.8423      4.6020      4.3159    
  4.0181      3.7476      3.5369      3.4054      3.3611      3.4054      3.5369      3.7476      4.0181      4.3159    
  5.2169      5.4904      5.6408      5.6981      5.6981      5.6410      5.4907      5.2171      4.8423      4.4189    
  4.0042      3.6535      3.4054      3.2786      3.2785      3.4054      3.6536      4.0044      4.4190      4.8423    
  5.7892      5.8842      5.8597      5.8336      5.8597      5.8842      5.7893      5.4907      5.0163      4.4863    
  3.9935      3.6049      3.3611      3.2785      3.3610      3.6049      3.9935      4.4864      5.0163      5.4906    
  5.7921      5.5052      5.2688      5.2687      5.5049      5.7918      5.8842      5.6410      5.1183      4.5190    
  3.9895      3.6050      3.4054      3.4054      3.6049      3.9895      4.5190      5.1182      5.6409      5.8842    
  4.7913      4.0988      3.8141      4.0989      4.7914      5.5049      5.8597      5.6981      5.1512      4.5190    
  3.9935      3.6536      3.5369      3.6536      3.9935      4.5190      5.1511      5.6981      5.8597      5.5048    
  2.7791      1.9102      1.9105      2.7797      4.0989      5.2687      5.8336      5.6981      5.1183      4.4863    
  4.0042      3.7475      3.7476      4.0044      4.4864      5.1182      5.6981      5.8338      5.2688      4.0986    
 0.29447     -.33893     0.29435      1.9105      3.8141      5.2688      5.8597      5.6408      5.0163      4.4190    
  4.0181      3.8781      4.0181      4.4190      5.0163      5.6409      5.8597      5.2688      3.8141      1.9107    
 -1.7637     -1.7641     -.33893      1.9102      4.0988      5.5052      5.8842      5.4904      4.8422      4.3161    
  4.0299      4.0298      4.3159      4.8423      5.4906      5.8842      5.5048      4.0986      1.9107     -.33812    
 -1.7637     -.33817      1.9106      4.0986      5.5048      5.8842      5.4906      4.8423      4.3159      4.0298    
  4.0299      4.3161      4.8422      5.4904      5.8842      5.5052      4.0988      1.9102     -.33892     -1.7641    
 -.33817      1.4219      3.5123      5.1437      5.8621      5.7084      5.0972      4.4931      4.0854      3.9428    
  4.0855      4.4931      5.0971      5.7085      5.8625      5.1440      3.5120      1.4210     -.33900     -1.0260    
  1.9106      3.5123      4.9861      5.7956      5.8025      5.2665      4.6239      4.1263      3.8595      3.8594    
  4.1261      4.6238      5.2667      5.8027      5.7957      4.9860      3.5121      1.9105     0.87091     0.87095    
  4.0986      5.1437      5.7956      5.8253      5.3474      4.7025      4.1518      3.7919      3.6678      3.7919    
  4.1518      4.7024      5.3474      5.8252      5.7956      5.1438      4.0990      3.1446      2.7599      3.1442    
  5.5048      5.8621      5.8025      5.3474      4.7287      4.1641      3.7486      3.5316      3.5317      3.7487    
  4.1640      4.7285      5.3474      5.8026      5.8623      5.5049      4.9541      4.5531      4.5531      4.9541    
  5.8842      5.7084      5.2665      4.7025      4.1641      3.7339      3.4619      3.3695      3.4619      3.7339    
  4.1641      4.7025      5.2667      5.7085      5.8841      5.8057      5.6302      5.5444      5.6304      5.8059    
  5.4906      5.0972      4.6239      4.1518      3.7486      3.4619      3.3149      3.3149      3.4618      3.7486    
  4.1518      4.6238      5.0972      5.4906      5.7236      5.8035      5.8081      5.8080      5.8034      5.7236    
  4.8423      4.4931      4.1263      3.7919      3.5316      3.3695      3.3149      3.3695      3.5316      3.7918    
  4.1261      4.4929      4.8423      5.1306      5.3285      5.4313      5.4610      5.4311      5.3282      5.1303    
  4.3159      4.0854      3.8595      3.6678      3.5317      3.4619      3.4618      3.5316      3.6678      3.8596    
  4.0854      4.3159      4.5211      4.6801      4.7843      4.8347      4.8347      4.7843      4.6801      4.5211    
  4.0298      3.9428      3.8594      3.7919      3.7487      3.7339      3.7486      3.7918      3.8596      3.9430    
  4.0299      4.1077      4.1681      4.2085      4.2305      4.2374      4.2306      4.2086      4.1683      4.1078    
  4.0299      4.0855      4.1261      4.1518      4.1640      4.1641      4.1518      4.1261      4.0854      4.0299    
  3.9629      3.8920      3.8277      3.7795      3.7540      3.7540      3.7795      3.8277      3.8920      3.9628    
  4.3161      4.4931      4.6238      4.7024      4.7285      4.7025      4.6238      4.4929      4.3159      4.1077    
  3.8920      3.6957      3.5420      3.4457      3.4131      3.4457      3.5420      3.6955      3.8919      4.1078    
  4.8422      5.0971      5.2667      5.3474      5.3474      5.2667      5.0972      4.8423      4.5211      4.1681    
  3.8277      3.5420      3.3405      3.2376      3.2377      3.3406      3.5420      3.8277      4.1681      4.5211    
  5.4904      5.7085      5.8027      5.8252      5.8026      5.7085      5.4906      5.1306      4.6801      4.2085    
  3.7795      3.4457      3.2376      3.1674      3.2376      3.4457      3.7797      4.2086      4.6801      5.1303    
  5.8842      5.8625      5.7957      5.7956      5.8623      5.8841      5.7236      5.3285      4.7843      4.2305    
  3.7540      3.4131      3.2377      3.2376      3.4130      3.7539      4.2306      4.7843      5.3284      5.7236    
  5.5052      5.1440      4.9860      5.1438      5.5049      5.8057      5.8035      5.4313      4.8347      4.2374    
  3.7540      3.4457      3.3406      3.4457      3.7539      4.2373      4.8346      5.4312      5.8036      5.8060    
  4.0988      3.5120      3.5121      4.0990      4.9541      5.6302      5.8081      5.4610      4.8347      4.2306    
  3.7795      3.5420      3.5420      3.7797      4.2306      4.8346      5.4609      5.8081      5.6303      4.9541    
  1.9102      1.4210      1.9105      3.1446      4.5531      5.5444      5.8080      5.4311      4.7843      4.2086    
  3.8277      3.6955      3.8277      4.2086      4.7843      5.4312      5.8081      5.5444      4.5529      3.1442    
 -.33892     -.33900     0.87091      2.7599      4.5531      5.6304      5.8034      5.3282      4.6801      4.1683    
  3.8920      3.8919      4.1681      4.6801      5.3284      5.8036      5.6303      4.5529      2.7598     0.87098    
 -1.7641     -1.0260     0.87095      3.1442      4.9541      5.8059      5.7236      5.1303      4.5211      4.1078    
  3.9628      4.1078      4.5211      5.1303      5.7236      5.8060      4.9541      3.1442     0.87098     -1.0259    
 0.29442      1.9106      3.8141      5.2688      5.8597      5.6408      5.0163      4.4191      4.0181      3.8781    
  4.0181      4.4190      5.0163      5.6408      5.8597      5.2688      3.8141      1.9105     0.29434     -.33894    
  1.9106      3.5122      4.9861      5.7956      5.8025      5.2666      4.6239      4.1263      3.8595      3.8594    
  4.1261      4.6238      5.2667      5.8027      5.7957      4.9860      3.5120      1.9105     0.87088     0.87093    
  3.8141      4.9861      5.7532      5.8594      5.4127      4.7661      4.2072      3.8406      3.7138      3.8405    
  4.2072      4.7660      5.4128      5.8595      5.7532      4.9861      3.8141      2.7599      2.3375      2.7598    
  5.2688      5.7956      5.8594      5.4595      4.8384      4.2569      3.8256      3.5994      3.5995      3.8258    
  4.2569      4.8383      5.4594      5.8593      5.7956      5.2690      4.5532      4.0499      4.0498      4.5529    
  5.8597      5.8025      5.4127      4.8384      4.2736      3.8178      3.5279      3.4292      3.5279      3.8178    
  4.2736      4.8384      5.4128      5.8025      5.8597      5.6303      5.3281      5.1928      5.3281      5.6303    
  5.6408      5.2666      4.7661      4.2569      3.8178      3.5038      3.3423      3.3423      3.5037      3.8178    
  4.2569      4.7662      5.2667      5.6408      5.8034      5.7953      5.7398      5.7400      5.7955      5.8036    
  5.0163      4.6239      4.2072      3.8256      3.5279      3.3423      3.2798      3.3423      3.5279      3.8256    
  4.2072      4.6238      5.0163      5.3284      5.5165      5.5956      5.6138      5.5956      5.5165      5.3284    
  4.4191      4.1263      3.8406      3.5994      3.4292      3.3423      3.3423      3.4292      3.5995      3.8405    
  4.1261      4.4189      4.6801      4.8819      5.0129      5.0744      5.0743      5.0127      4.8818      4.6801    
  4.0181      3.8595      3.7138      3.5995      3.5279      3.5037      3.5279      3.5995      3.7138      3.8595    
  4.0181      4.1681      4.2919      4.3800      4.4310      4.4474      4.4309      4.3799      4.2919      4.1681    
  3.8781      3.8594      3.8405      3.8258      3.8178      3.8178      3.8256      3.8405      3.8595      3.8783    
  3.8920      3.8981      3.8974      3.8936      3.8904      3.8905      3.8937      3.8975      3.8981      3.8919    
  4.0181      4.1261      4.2072      4.2569      4.2736      4.2569      4.2072      4.1261      4.0181      3.8920    
  3.7610      3.6406      3.5452      3.4847      3.4641      3.4847      3.5452      3.6406      3.7610      3.8920    
  4.4190      4.6238      4.7660      4.8383      4.8384      4.7662      4.6238      4.4189      4.1681      3.8981    
  3.6406      3.4255      3.2738      3.1962      3.1962      3.2738      3.4254      3.6405      3.8981      4.1683    
  5.0163      5.2667      5.4128      5.4594      5.4128      5.2667      5.0163      4.6801      4.2919      3.8974    
  3.5452      3.2738      3.1055      3.0488      3.1055      3.2738      3.5452      3.8974      4.2919      4.6801    
  5.6408      5.8027      5.8595      5.8593      5.8025      5.6408      5.3284      4.8819      4.3800      3.8936    
  3.4847      3.1962      3.0488      3.0488      3.1962      3.4848      3.8937      4.3800      4.8817      5.3282    
  5.8597      5.7957      5.7532      5.7956      5.8597      5.8034      5.5165      5.0129      4.4310      3.8904    
  3.4641      3.1962      3.1055      3.1962      3.4641      3.8904      4.4310      5.0129      5.5165      5.8035    
  5.2688      4.9860      4.9861      5.2690      5.6303      5.7953      5.5956      5.0744      4.4474      3.8905    
  3.4847      3.2738      3.2738      3.4848      3.8904      4.4473      5.0743      5.5958      5.7956      5.6304    
  3.8141      3.5120      3.8141      4.5532      5.3281      5.7398      5.6138      5.0743      4.4309      3.8937    
  3.5452      3.4254      3.5452      3.8937      4.4310      5.0743      5.6138      5.7398      5.3281      4.5531    
  1.9105      1.9105      2.7599      4.0499      5.1928      5.7400      5.5956      5.0127      4.3799      3.8975    
  3.6406      3.6405      3.8974      4.3800      5.0129      5.5958      5.7398      5.1925      4.0497      2.7599    
 0.29434     0.87088      2.3375      4.0498      5.3281      5.7955      5.5165      4.8818      4.2919      3.8981    
  3.7610      3.8981      4.2919      4.8817      5.5165      5.7956      5.3281      4.0497      2.3375     0.87092    
 -.33894     0.87093      2.7598      4.5529      5.6303      5.8036      5.3284      4.6801      4.1681      3.8919    
  3.8920      4.1683      4.6801      5.3282      5.8035      5.6304      4.5531      2.7599     0.87092     -.33897    
  2.7791      4.0986      5.2688      5.8338      5.6981      5.1182      4.4864      4.0044      3.7476      3.7475    
  4.0042      4.4863      5.1183      5.6980      5.8336      5.2687      4.0989      2.7797      1.9105      1.9103    
  4.0986      5.1437      5.7956      5.8253      5.3474      4.7025      4.1518      3.7920      3.6678      3.7919    
  4.1518      4.7024      5.3474      5.8252      5.7956      5.1438      4.0989      3.1445      2.7599      3.1442    
  5.2688      5.7956      5.8595      5.4596      4.8385      4.2569      3.8256      3.5994      3.5995      3.8258    
  4.2569      4.8383      5.4594      5.8593      5.7956      5.2690      4.5531      4.0499      4.0498      4.5529    
  5.8338      5.8253      5.4596      4.8846      4.3112      3.8469      3.5509      3.4500      3.5509      3.8469    
  4.3114      4.8846      5.4593      5.8250      5.8337      5.5447      5.1929      5.0382      5.1926      5.5444    
  5.6981      5.3474      4.8385      4.3112      3.8541      3.5261      3.3571      3.3571      3.5260      3.8541    
  4.3114      4.8385      5.3473      5.6979      5.8080      5.7399      5.6446      5.6446      5.7398      5.8081    
  5.1182      4.7025      4.2569      3.8469      3.5261      3.3258      3.2583      3.3258      3.5260      3.8469    
  4.2570      4.7026      5.1183      5.4311      5.5955      5.6463      5.6522      5.6465      5.5958      5.4312    
  4.4864      4.1518      3.8256      3.5509      3.3571      3.2583      3.2583      3.3571      3.5509      3.8257    
  4.1518      4.4864      4.7843      5.0129      5.1549      5.2173      5.2174      5.1551      5.0129      4.7844    
  4.0044      3.7920      3.5994      3.4500      3.3571      3.3258      3.3571      3.4500      3.5995      3.7919    
  4.0042      4.2085      4.3800      4.5040      4.5767      4.6003      4.5766      4.5039      4.3800      4.2086    
  3.7476      3.6678      3.5995      3.5509      3.5260      3.5260      3.5509      3.5995      3.6678      3.7476    
  3.8277      3.8974      3.9500      3.9836      3.9996      3.9996      3.9836      3.9500      3.8974      3.8277    
  3.7475      3.7919      3.8258      3.8469      3.8541      3.8469      3.8257      3.7919      3.7476      3.6957    
  3.6406      3.5883      3.5455      3.5176      3.5080      3.5177      3.5456      3.5884      3.6405      3.6955    
  4.0042      4.1518      4.2569      4.3114      4.3114      4.2570      4.1518      4.0042      3.8277      3.6406    
  3.4636      3.3160      3.2116      3.1580      3.1580      3.2116      3.3160      3.4637      3.6406      3.8277    
  4.4863      4.7024      4.8383      4.8846      4.8385      4.7026      4.4864      4.2085      3.8974      3.5883    
  3.3160      3.1074      2.9783      2.9348      2.9783      3.1074      3.3160      3.5884      3.8976      4.2086    
  5.1183      5.3474      5.4594      5.4593      5.3473      5.1183      4.7843      4.3800      3.9500      3.5455    
  3.2116      2.9783      2.8596      2.8596      2.9783      3.2116      3.5455      3.9500      4.3799      4.7843    
  5.6980      5.8252      5.8593      5.8250      5.6979      5.4311      5.0129      4.5040      3.9836      3.5176    
  3.1580      2.9348      2.8596      2.9348      3.1580      3.5177      3.9836      4.5038      5.0127      5.4311    
  5.8336      5.7956      5.7956      5.8337      5.8080      5.5955      5.1549      4.5767      3.9996      3.5080    
  3.1580      2.9783      2.9783      3.1580      3.5079      3.9995      4.5767      5.1550      5.5956      5.8080    
  5.2687      5.1438      5.2690      5.5447      5.7399      5.6463      5.2173      4.6003      3.9996      3.5177    
  3.2116      3.1074      3.2116      3.5177      3.9995      4.6003      5.2175      5.6465      5.7400      5.5445    
  4.0989      4.0989      4.5531      5.1929      5.6446      5.6522      5.2174      4.5766      3.9836      3.5456    
  3.3160      3.3160      3.5455      3.9836      4.5767      5.2175      5.6522      5.6445      5.1928      4.5531    
  2.7797      3.1445      4.0499      5.0382      5.6446      5.6465      5.1551      4.5039      3.9500      3.5884    
  3.4637      3.5884      3.9500      4.5038      5.1550      5.6465      5.6445      5.0382      4.0499      3.1445    
  1.9105      2.7599      4.0498      5.1926      5.7398      5.5958      5.0129      4.3800      3.8974      3.6405    
  3.6406      3.8976      4.3799      5.0127      5.5956      5.7400      5.1928      4.0499      2.7599      1.9105    
  1.9103      3.1442      4.5529      5.5444      5.8081      5.4312      4.7844      4.2086      3.8277      3.6955    
  3.8277      4.2086      4.7843      5.4311      5.8080      5.5445      4.5531      3.1445      1.9105      1.4210    
  4.7913      5.5048      5.8597      5.6981      5.1511      4.5190      3.9935      3.6536      3.5369      3.6535    
  3.9935      4.5190      5.1511      5.6981      5.8597      5.5049      4.7914      4.0989      3.8141      4.0988    
  5.5048      5.8621      5.8025      5.3475      4.7287      4.1641      3.7486      3.5316      3.5316      3.7487    
  4.1640      4.7285      5.3473      5.8026      5.8623      5.5049      4.9541      4.5531      4.5531      4.9541    
  5.8597      5.8025      5.4128      4.8385      4.2736      3.8178      3.5279      3.4292      3.5279      3.8178    
  4.2736      4.8384      5.4127      5.8025      5.8596      5.6303      5.3281      5.1928      5.3281      5.6303    
  5.6981      5.3475      4.8385      4.3112      3.8540      3.5261      3.3571      3.3571      3.5260      3.8541    
  4.3114      4.8385      5.3473      5.6979      5.8080      5.7399      5.6446      5.6446      5.7399      5.8081    
  5.1511      4.7287      4.2736      3.8540      3.5255      3.3203      3.2511      3.3203      3.5255      3.8541    
  4.2737      4.7287      5.1511      5.4608      5.6137      5.6521      5.6527      5.6522      5.6138      5.4608    
  4.5190      4.1641      3.8178      3.5261      3.3203      3.2154      3.2154      3.3203      3.5260      3.8178    
  4.1641      4.5192      4.8347      5.0743      5.2173      5.2773      5.2774      5.2175      5.0743      4.8345    
  3.9935      3.7486      3.5279      3.3571      3.2511      3.2154      3.2511      3.3571      3.5279      3.7486    
  3.9935      4.2306      4.4310      4.5767      4.6624      4.6904      4.6624      4.5767      4.4310      4.2306    
  3.6536      3.5316      3.4292      3.3571      3.3203      3.3203      3.3571      3.4292      3.5316      3.6535    
  3.7795      3.8936      3.9837      4.0439      4.0734      4.0734      4.0437      3.9836      3.8937      3.7797    
  3.5369      3.5316      3.5279      3.5260      3.5255      3.5260      3.5279      3.5316      3.5368      3.5420    
  3.5452      3.5455      3.5437      3.5414      3.5404      3.5414      3.5437      3.5455      3.5452      3.5420    
  3.6535      3.7487      3.8178      3.8541      3.8541      3.8178      3.7486      3.6535      3.5420      3.4255    
  3.3160      3.2246      3.1597      3.1261      3.1261      3.1597      3.2246      3.3160      3.4254      3.5419    
  3.9935      4.1640      4.2736      4.3114      4.2737      4.1641      3.9935      3.7795      3.5452      3.3160    
  3.1158      2.9627      2.8678      2.8357      2.8678      2.9627      3.1158      3.3160      3.5452      3.7795    
  4.5190      4.7285      4.8384      4.8385      4.7287      4.5192      4.2306      3.8936      3.5455      3.2246    
  2.9627      2.7806      2.6880      2.6880      2.7805      2.9627      3.2247      3.5456      3.8937      4.2306    
  5.1511      5.3473      5.4127      5.3473      5.1511      4.8347      4.4310      3.9837      3.5437      3.1597    
  2.8678      2.6880      2.6276      2.6880      2.8678      3.1596      3.5437      3.9836      4.4309      4.8347    
  5.6981      5.8026      5.8025      5.6979      5.4608      5.0743      4.5767      4.0439      3.5414      3.1261    
  2.8357      2.6880      2.6880      2.8358      3.1261      3.5414      4.0437      4.5765      5.0743      5.4610    
  5.8597      5.8623      5.8596      5.8080      5.6137      5.2173      4.6624      4.0734      3.5404      3.1261    
  2.8678      2.7805      2.8678      3.1261      3.5404      4.0734      4.6624      5.2174      5.6138      5.8081    
  5.5049      5.5049      5.6303      5.7399      5.6521      5.2773      4.6904      4.0734      3.5414      3.1597    
  2.9627      2.9627      3.1596      3.5414      4.0734      4.6905      5.2774      5.6522      5.7399      5.6302    
  4.7914      4.9541      5.3281      5.6446      5.6527      5.2774      4.6624      4.0437      3.5437      3.2246    
  3.1158      3.2247      3.5437      4.0437      4.6624      5.2774      5.6527      5.6446      5.3281      4.9541    
  4.0989      4.5531      5.1928      5.6446      5.6522      5.2175      4.5767      3.9836      3.5455      3.3160    
  3.3160      3.5456      3.9836      4.5765      5.2174      5.6522      5.6446      5.1929      4.5531      4.0990    
  3.8141      4.5531      5.3281      5.7399      5.6138      5.0743      4.4310      3.8937      3.5452      3.4254    
  3.5452      3.8937      4.4309      5.0743      5.6138      5.7399      5.3281      4.5531      3.8141      3.5121    
  4.0988      4.9541      5.6303      5.8081      5.4608      4.8345      4.2306      3.7797      3.5420      3.5419    
  3.7795      4.2306      4.8347      5.4610      5.8081      5.6302      4.9541      4.0990      3.5121      3.5120    
  5.7921      5.8841      5.6409      5.1182      4.5190      3.9894      3.6049      3.4054      3.4054      3.6050    
  3.9895      4.5191      5.1183      5.6410      5.8842      5.7919      5.5049      5.2687      5.2688      5.5052    
  5.8841      5.7084      5.2666      4.7025      4.1641      3.7339      3.4619      3.3695      3.4619      3.7339    
  4.1641      4.7025      5.2667      5.7085      5.8841      5.8057      5.6302      5.5444      5.6304      5.8059    
  5.6409      5.2666      4.7661      4.2569      3.8178      3.5038      3.3423      3.3423      3.5037      3.8178    
  4.2569      4.7662      5.2667      5.6408      5.8034      5.7953      5.7398      5.7400      5.7956      5.8036    
  5.1182      4.7025      4.2569      3.8468      3.5260      3.3258      3.2583      3.3258      3.5260      3.8469    
  4.2570      4.7026      5.1183      5.4311      5.5955      5.6463      5.6522      5.6465      5.5958      5.4312    
  4.5190      4.1641      3.8178      3.5260      3.3203      3.2154      3.2154      3.3203      3.5260      3.8178    
  4.1641      4.5192      4.8347      5.0743      5.2173      5.2773      5.2774      5.2175      5.0743      4.8345    
  3.9894      3.7339      3.5038      3.3258      3.2154      3.1782      3.2154      3.3258      3.5037      3.7338    
  3.9896      4.2375      4.4474      4.6003      4.6904      4.7199      4.6905      4.6003      4.4472      4.2373    
  3.6049      3.4619      3.3423      3.2583      3.2154      3.2154      3.2582      3.3423      3.4618      3.6049    
  3.7540      3.8905      3.9996      4.0735      4.1101      4.1101      4.0734      3.9995      3.8904      3.7539    
  3.4054      3.3695      3.3423      3.3258      3.3203      3.3258      3.3423      3.3695      3.4054      3.4457    
  3.4847      3.5176      3.5415      3.5554      3.5599      3.5553      3.5414      3.5177      3.4848      3.4457    
  3.4054      3.4619      3.5037      3.5260      3.5260      3.5037      3.4618      3.4054      3.3405      3.2738    
  3.2116      3.1597      3.1225      3.1032      3.1032      3.1225      3.1596      3.2116      3.2738      3.3405    
  3.6050      3.7339      3.8178      3.8469      3.8178      3.7338      3.6049      3.4457      3.2738      3.1074    
  2.9627      2.8520      2.7830      2.7596      2.7830      2.8520      2.9627      3.1074      3.2738      3.4457    
  3.9895      4.1641      4.2569      4.2570      4.1641      3.9896      3.7540      3.4847      3.2116      2.9627    
  2.7605      2.6198      2.5480      2.5480      2.6198      2.7606      2.9627      3.2116      3.4847      3.7540    
  4.5191      4.7025      4.7662      4.7026      4.5192      4.2375      3.8905      3.5176      3.1597      2.8520    
  2.6198      2.4770      2.4290      2.4770      2.6198      2.8520      3.1597      3.5177      3.8905      4.2375    
  5.1183      5.2667      5.2667      5.1183      4.8347      4.4474      3.9996      3.5415      3.1225      2.7830    
  2.5480      2.4290      2.4290      2.5480      2.7830      3.1225      3.5414      3.9996      4.4474      4.8347    
  5.6410      5.7085      5.6408      5.4311      5.0743      4.6003      4.0735      3.5554      3.1032      2.7596    
  2.5480      2.4770      2.5480      2.7596      3.1032      3.5553      4.0734      4.6003      5.0744      5.4313    
  5.8842      5.8841      5.8034      5.5955      5.2173      4.6904      4.1101      3.5599      3.1032      2.7830    
  2.6198      2.6198      2.7830      3.1032      3.5599      4.1101      4.6904      5.2173      5.5956      5.8036    
  5.7919      5.8057      5.7953      5.6463      5.2773      4.7199      4.1101      3.5553      3.1225      2.8520    
  2.7606      2.8520      3.1225      3.5553      4.1101      4.7199      5.2773      5.6463      5.7953      5.8057    
  5.5049      5.6302      5.7398      5.6522      5.2774      4.6905      4.0734      3.5414      3.1596      2.9627    
  2.9627      3.1597      3.5414      4.0734      4.6904      5.2773      5.6522      5.7399      5.6303      5.5049    
  5.2687      5.5444      5.7400      5.6465      5.2175      4.6003      3.9995      3.5177      3.2116      3.1074    
  3.2116      3.5177      3.9996      4.6003      5.2173      5.6463      5.7399      5.5447      5.2690      5.1438    
  5.2688      5.6304      5.7956      5.5958      5.0743      4.4472      3.8904      3.4848      3.2738      3.2738    
  3.4847      3.8905      4.4474      5.0744      5.5956      5.7953      5.6303      5.2690      4.9861      4.9860    
  5.5052      5.8059      5.8036      5.4312      4.8345      4.2373      3.7539      3.4457      3.3405      3.4457    
  3.7540      4.2375      4.8347      5.4313      5.8036      5.8057      5.5049      5.1438      4.9860      5.1440    
  5.7892      5.4906      5.0163      4.4864      3.9935      3.6049      3.3610      3.2786      3.3611      3.6049    
  3.9935      4.4864      5.0163      5.4907      5.7893      5.8842      5.8597      5.8336      5.8597      5.8842    
  5.4906      5.0972      4.6239      4.1518      3.7486      3.4619      3.3149      3.3149      3.4618      3.7486    
  4.1518      4.6238      5.0972      5.4906      5.7237      5.8036      5.8081      5.8080      5.8034      5.7236    
  5.0163      4.6239      4.2072      3.8256      3.5279      3.3423      3.2798      3.3423      3.5279      3.8256    