fcc Si                                  
   3.8999999999999999     
     0.000000    0.500000    0.500000
     0.500000    0.000000    0.500000
     0.500000    0.500000    0.000000
   Si
     1
Direct
  0.000000  0.000000  0.000000

   20   20   20
 -.25622278952E+01 -.17636851908E+01 0.29446534016E+00 0.27791242228E+01 0.47913257421E+01
 0.57920815201E+01 0.57892442893E+01 0.52169423920E+01 0.46019797753E+01 0.41821523750E+01
 0.40345484557E+01 0.41821523750E+01 0.46019797753E+01 0.52169423920E+01 0.57892442893E+01
 0.57920815201E+01 0.47913257421E+01 0.27791242228E+01 0.29446534016E+00 -.17636851908E+01
 -.17636851908E+01 -.33812222835E+00 0.19106519498E+01 0.40986118424E+01 0.55048404480E+01
 0.58841873846E+01 0.54906388001E+01 0.48422584333E+01 0.43158874756E+01 0.40297639514E+01
 0.40299101298E+01 0.43161108026E+01 0.48422302205E+01 0.54904171331E+01 0.58841677238E+01
 0.55051527944E+01 0.40988094986E+01 0.19102433514E+01 -.33893482666E+00 -.17641072361E+01
 0.29446534016E+00 0.19106519498E+01 0.38140759490E+01 0.52687502912E+01 0.58596697786E+01
 0.56408624296E+01 0.50163169116E+01 0.44190249738E+01 0.40181022900E+01 0.38781163528E+01
 0.40181013925E+01 0.44190023707E+01 0.50162689574E+01 0.56408265950E+01 0.58596854509E+01
 0.52687901229E+01 0.38140557374E+01 0.19105415031E+01 0.29435215620E+00 -.33893482666E+00
 0.27791242228E+01 0.40986118424E+01 0.52687502912E+01 0.58337963866E+01 0.56980818375E+01
 0.51182310586E+01 0.44863584298E+01 0.40043581382E+01 0.37476022668E+01 0.37475001334E+01
 0.40041806853E+01 0.44863141690E+01 0.51183124279E+01 0.56980668117E+01 0.58336028297E+01
 0.52686540025E+01 0.40989266072E+01 0.27797052074E+01 0.19105415031E+01 0.19102433514E+01
 0.47913257421E+01 0.55048404480E+01 0.58596697786E+01 0.56980818375E+01 0.51511300074E+01
 0.45190143234E+01 0.39934830276E+01 0.36535627650E+01 0.35368833943E+01 0.36535703642E+01
 0.39934720176E+01 0.45190036442E+01 0.51511552711E+01 0.56981135604E+01 0.58596645433E+01
 0.55048506848E+01 0.47914227753E+01 0.40989266072E+01 0.38140557374E+01 0.40988094986E+01
 0.57920815201E+01 0.58841873846E+01 0.56408624296E+01 0.51182310586E+01 0.45190143234E+01
 0.39894745586E+01 0.36048748474E+01 0.34053800254E+01 0.34054385526E+01 0.36049751948E+01
 0.39895189370E+01 0.45190425172E+01 0.51183315041E+01 0.56409832445E+01 0.58841596702E+01
 0.57918418115E+01 0.55048506848E+01 0.52686540025E+01 0.52687901229E+01 0.55051527944E+01
 0.57892442893E+01 0.54906388001E+01 0.50163169116E+01 0.44863584298E+01 0.39934830276E+01
 0.36048748474E+01 0.33610275258E+01 0.32785484297E+01 0.33610677631E+01 0.36049133402E+01
 0.39934838298E+01 0.44863343828E+01 0.50163070818E+01 0.54906587687E+01 0.57892656938E+01
 0.58841596702E+01 0.58596645433E+01 0.58336028297E+01 0.58596854509E+01 0.58841677238E+01
 0.52169423920E+01 0.48422584333E+01 0.44190249738E+01 0.40043581382E+01 0.36535627650E+01
 0.34053800254E+01 0.32785484297E+01 0.32785725290E+01 0.34054038721E+01 0.36534972060E+01
 0.40041876199E+01 0.44188700632E+01 0.48422709971E+01 0.52171363891E+01 0.54906587687E+01
 0.56409832445E+01 0.56981135604E+01 0.56980668117E+01 0.56408265950E+01 0.54904171331E+01
 0.46019797753E+01 0.43158874756E+01 0.40181022900E+01 0.37476022668E+01 0.35368833943E+01
 0.34054385526E+01 0.33610677631E+01 0.34054038721E+01 0.35368507544E+01 0.37475917903E+01
 0.40181014304E+01 0.43158896549E+01 0.46020009931E+01 0.48422709971E+01 0.50163070818E+01
 0.51183315041E+01 0.51511552711E+01 0.51183124279E+01 0.50162689574E+01 0.48422302205E+01
 0.41821523750E+01 0.40297639514E+01 0.38781163528E+01 0.37475001334E+01 0.36535703642E+01
 0.36049751948E+01 0.36049133402E+01 0.36534972060E+01 0.37475917903E+01 0.38783514062E+01
 0.40299171627E+01 0.41820659937E+01 0.43158896549E+01 0.44188700632E+01 0.44863343828E+01
 0.45190425172E+01 0.45190036442E+01 0.44863141690E+01 0.44190023707E+01 0.43161108026E+01
 0.40345484557E+01 0.40299101298E+01 0.40181013925E+01 0.40041806853E+01 0.39934720176E+01
 0.39895189370E+01 0.39934838298E+01 0.40041876199E+01 0.40181014304E+01 0.40299171627E+01
 0.40345632729E+01 0.40299171627E+01 0.40181014304E+01 0.40041876199E+01 0.39934838298E+01
 0.39895189370E+01 0.39934720176E+01 0.40041806853E+01 0.40181013925E+01 0.40299101298E+01
 0.41821523750E+01 0.43161108026E+01 0.44190023707E+01 0.44863141690E+01 0.45190036442E+01
 0.45190425172E+01 0.44863343828E+01 0.44188700632E+01 0.43158896549E+01 0.41820659937E+01
 0.40299171627E+01 0.38783514062E+01 0.37475917903E+01 0.36534972060E+01 0.36049133402E+01
 0.36049751948E+01 0.36535703642E+01 0.37475001334E+01 0.38781163528E+01 0.40297639514E+01
 0.46019797753E+01 0.48422302205E+01 0.50162689574E+01 0.51183124279E+01 0.51511552711E+01
 0.51183315041E+01 0.50163070818E+01 0.48422709971E+01 0.46020009931E+01 0.43158896549E+01
 0.40181014304E+01 0.37475917903E+01 0.35368507544E+01 0.34054038721E+01 0.33610677631E+01
 0.34054385526E+01 0.35368833943E+01 0.37476022668E+01 0.40181022900E+01 0.43158874756E+01
 0.52169423920E+01 0.54904171331E+01 0.56408265950E+01 0.56980668117E+01 0.56981135604E+01
 0.56409832445E+01 0.54906587687E+01 0.52171363891E+01 0.48422709971E+01 0.44188700632E+01
 0.40041876199E+01 0.36534972060E+01 0.34054038721E+01 0.32785725290E+01 0.32785484297E+01
 0.34053800254E+01 0.36535627650E+01 0.40043581382E+01 0.44190249738E+01 0.48422584333E+01
 0.57892442893E+01 0.58841677238E+01 0.58596854509E+01 0.58336028297E+01 0.58596645433E+01
 0.58841596702E+01 0.57892656938E+01 0.54906587687E+01 0.50163070818E+01 0.44863343828E+01
 0.39934838298E+01 0.36049133402E+01 0.33610677631E+01 0.32785484297E+01 0.33610275258E+01
 0.36048748474E+01 0.39934830276E+01 0.44863584298E+01 0.50163169116E+01 0.54906388001E+01
 0.57920815201E+01 0.55051527944E+01 0.52687901229E+01 0.52686540025E+01 0.55048506848E+01
 0.57918418115E+01 0.58841596702E+01 0.56409832445E+01 0.51183315041E+01 0.45190425172E+01
 0.39895189370E+01 0.36049751948E+01 0.34054385526E+01 0.34053800254E+01 0.36048748474E+01
 0.39894745586E+01 0.45190143234E+01 0.51182310586E+01 0.56408624296E+01 0.58841873846E+01
 0.47913257421E+01 0.40988094986E+01 0.38140557374E+01 0.40989266072E+01 0.47914227753E+01
 0.55048506848E+01 0.58596645433E+01 0.56981135604E+01 0.51511552711E+01 0.45190036442E+01
 0.39934720176E+01 0.36535703642E+01 0.35368833943E+01 0.36535627650E+01 0.39934830276E+01
 0.45190143234E+01 0.51511300074E+01 0.56980818375E+01 0.58596697786E+01 0.55048404480E+01
 0.27791242228E+01 0.19102433514E+01 0.19105415031E+01 0.27797052074E+01 0.40989266072E+01
 0.52686540025E+01 0.58336028297E+01 0.56980668117E+01 0.51183124279E+01 0.44863141690E+01
 0.40041806853E+01 0.37475001334E+01 0.37476022668E+01 0.40043581382E+01 0.44863584298E+01
 0.51182310586E+01 0.56980818375E+01 0.58337963866E+01 0.52687502912E+01 0.40986118424E+01
 0.29446534016E+00 -.33893482666E+00 0.29435215620E+00 0.19105415031E+01 0.38140557374E+01
 0.52687901229E+01 0.58596854509E+01 0.56408265950E+01 0.50162689574E+01 0.44190023707E+01
 0.40181013925E+01 0.38781163528E+01 0.40181022900E+01 0.44190249738E+01 0.50163169116E+01
 0.56408624296E+01 0.58596697786E+01 0.52687502912E+01 0.38140759490E+01 0.19106519498E+01
 -.17636851908E+01 -.17641072361E+01 -.33893482666E+00 0.19102433514E+01 0.40988094986E+01
 0.55051527944E+01 0.58841677238E+01 0.54904171331E+01 0.48422302205E+01 0.43161108026E+01
 0.40299101298E+01 0.40297639514E+01 0.43158874756E+01 0.48422584333E+01 0.54906388001E+01
 0.58841873846E+01 0.55048404480E+01 0.40986118424E+01 0.19106519498E+01 -.33812222835E+00
 -.17637095321E+01 -.33816799444E+00 0.19106227540E+01 0.40986016668E+01 0.55048222672E+01
 0.58841641152E+01 0.54906372956E+01 0.48422728184E+01 0.43158880285E+01 0.40297550293E+01
 0.40299209596E+01 0.43161367261E+01 0.48422415272E+01 0.54904180823E+01 0.58841880831E+01
 0.55051884557E+01 0.40988294349E+01 0.19102471030E+01 -.33892458924E+00 -.17640997737E+01
 -.33816799444E+00 0.14218752515E+01 0.35122559490E+01 0.51436753655E+01 0.58621281714E+01
 0.57083846891E+01 0.50972351521E+01 0.44931319354E+01 0.40854365623E+01 0.39427886345E+01
 0.40854945705E+01 0.44931063812E+01 0.50971406802E+01 0.57084683739E+01 0.58624998418E+01
 0.51439789006E+01 0.35119628101E+01 0.14209665158E+01 -.33899904538E+00 -.10259690221E+01
 0.19106227540E+01 0.35122559490E+01 0.49861294138E+01 0.57955820114E+01 0.58024657471E+01
 0.52665494061E+01 0.46238673574E+01 0.41262842426E+01 0.38595355774E+01 0.38594300812E+01
 0.41260795174E+01 0.46237822747E+01 0.52666783503E+01 0.58026725200E+01 0.57956511840E+01
 0.49859989185E+01 0.35120519224E+01 0.19104860507E+01 0.87090787296E+00 0.87094824248E+00
 0.40986016668E+01 0.51436753655E+01 0.57955820114E+01 0.58252666572E+01 0.53474340466E+01
 0.47024517343E+01 0.41517898911E+01 0.37919263529E+01 0.36678093201E+01 0.37919193834E+01
 0.41517522539E+01 0.47023868938E+01 0.53473601120E+01 0.58251868921E+01 0.57955524115E+01
 0.51438288411E+01 0.40989616907E+01 0.31445556341E+01 0.27599444458E+01 0.31442269935E+01
 0.55048222672E+01 0.58621281714E+01 0.58024657471E+01 0.53474340466E+01 0.47286740002E+01
 0.41640752140E+01 0.37485793068E+01 0.35315660315E+01 0.35316634580E+01 0.37487177881E+01
 0.41640345048E+01 0.47284998455E+01 0.53473607078E+01 0.58025847481E+01 0.58623075889E+01
 0.55049207120E+01 0.49541214620E+01 0.45530944969E+01 0.45531039860E+01 0.49541119747E+01
 0.58841641152E+01 0.57083846891E+01 0.52665494061E+01 0.47024517343E+01 0.41640752140E+01
 0.37339038653E+01 0.34618618197E+01 0.33694905598E+01 0.34618767446E+01 0.37338976757E+01
 0.41640666371E+01 0.47025146940E+01 0.52666873112E+01 0.57084791405E+01 0.58840913096E+01
 0.58057019057E+01 0.56301966477E+01 0.55444419466E+01 0.56303788991E+01 0.58059135244E+01
 0.54906372956E+01 0.50972351521E+01 0.46238673574E+01 0.41517898911E+01 0.37485793068E+01
 0.34618618197E+01 0.33149286063E+01 0.33149120114E+01 0.34618434080E+01 0.37485932946E+01
 0.41518013562E+01 0.46238248230E+01 0.50971602711E+01 0.54906143573E+01 0.57236368141E+01
 0.58035389066E+01 0.58080826418E+01 0.58080353720E+01 0.58034381529E+01 0.57235695825E+01
 0.48422728184E+01 0.44931319354E+01 0.41262842426E+01 0.37919263529E+01 0.35315660315E+01
 0.33694905598E+01 0.33149120114E+01 0.33695458107E+01 0.35316038083E+01 0.37918489856E+01
 0.41260769123E+01 0.44929315852E+01 0.48422575645E+01 0.51305548027E+01 0.53285203948E+01
 0.54313026868E+01 0.54610111746E+01 0.54311084281E+01 0.53282315489E+01 0.51303499685E+01
 0.43158880285E+01 0.40854365623E+01 0.38595355774E+01 0.36678093201E+01 0.35316634580E+01
 0.34618767446E+01 0.34618434080E+01 0.35316038083E+01 0.36677856841E+01 0.38595513997E+01
 0.40854489057E+01 0.43158825950E+01 0.45211383263E+01 0.46801360400E+01 0.47843402759E+01
 0.48347447443E+01 0.48347214966E+01 0.47842888842E+01 0.46800957684E+01 0.45211308305E+01
 0.40297550293E+01 0.39427886345E+01 0.38594300812E+01 0.37919193834E+01 0.37487177881E+01
 0.37338976757E+01 0.37485932946E+01 0.37918489856E+01 0.38595513997E+01 0.39430255644E+01
 0.40298977750E+01 0.41077293205E+01 0.41681169558E+01 0.42084544494E+01 0.42305434232E+01
 0.42374423901E+01 0.42305847467E+01 0.42085805987E+01 0.41682852584E+01 0.41077887497E+01
 0.40299209596E+01 0.40854945705E+01 0.41260795174E+01 0.41517522539E+01 0.41640345048E+01
 0.41640666371E+01 0.41518013562E+01 0.41260769123E+01 0.40854489057E+01 0.40298977750E+01
 0.39628598324E+01 0.38920227577E+01 0.38276858298E+01 0.37795055996E+01 0.37539729145E+01
 0.37539885548E+01 0.37795334154E+01 0.38276890513E+01 0.38919927329E+01 0.39628358566E+01
 0.43161367261E+01 0.44931063812E+01 0.46237822747E+01 0.47023868938E+01 0.47284998455E+01
 0.47025146940E+01 0.46238248230E+01 0.44929315852E+01 0.43158825950E+01 0.41077293205E+01
 0.38920227577E+01 0.36957079089E+01 0.35420098784E+01 0.34456668720E+01 0.34130903424E+01
 0.34457022154E+01 0.35419605132E+01 0.36955412527E+01 0.38918977745E+01 0.41078204066E+01
 0.48422415272E+01 0.50971406802E+01 0.52666783503E+01 0.53473601120E+01 0.53473607078E+01
 0.52666873112E+01 0.50971602711E+01 0.48422575645E+01 0.45211383263E+01 0.41681169558E+01
 0.38276858298E+01 0.35420098784E+01 0.33405324566E+01 0.32376388196E+01 0.32376566138E+01
 0.33405659609E+01 0.35420300232E+01 0.38276925620E+01 0.41681237899E+01 0.45211380515E+01
 0.54904180823E+01 0.57084683739E+01 0.58026725200E+01 0.58251868921E+01 0.58025847481E+01
 0.57084791405E+01 0.54906143573E+01 0.51305548027E+01 0.46801360400E+01 0.42084544494E+01
 0.37795055996E+01 0.34456668720E+01 0.32376388196E+01 0.31674445291E+01 0.32375896338E+01
 0.34456884205E+01 0.37796542816E+01 0.42086015986E+01 0.46800962291E+01 0.51303327032E+01
 0.58841880831E+01 0.58624998418E+01 0.57956511840E+01 0.57955524115E+01 0.58623075889E+01
 0.58840913096E+01 0.57236368141E+01 0.53285203948E+01 0.47843402759E+01 0.42305434232E+01
 0.37539729145E+01 0.34130903424E+01 0.32376566138E+01 0.32375896338E+01 0.34129737825E+01
 0.37539417702E+01 0.42305929582E+01 0.47843494497E+01 0.53284429611E+01 0.57235845992E+01
 0.55051884557E+01 0.51439789006E+01 0.49859989185E+01 0.51438288411E+01 0.55049207120E+01
 0.58057019057E+01 0.58035389066E+01 0.54313026868E+01 0.48347447443E+01 0.42374423901E+01
 0.37539885548E+01 0.34457022154E+01 0.33405659609E+01 0.34456884205E+01 0.37539417702E+01
 0.42373269580E+01 0.48345790934E+01 0.54312070140E+01 0.58036354992E+01 0.58059628504E+01
 0.40988294349E+01 0.35119628101E+01 0.35120519224E+01 0.40989616907E+01 0.49541214620E+01
 0.56301966477E+01 0.58080826418E+01 0.54610111746E+01 0.48347214966E+01 0.42305847467E+01
 0.37795334154E+01 0.35419605132E+01 0.35420300232E+01 0.37796542816E+01 0.42305929582E+01
 0.48345790934E+01 0.54608746823E+01 0.58081124154E+01 0.56303264890E+01 0.49541411522E+01
 0.19102471030E+01 0.14209665158E+01 0.19104860507E+01 0.31445556341E+01 0.45530944969E+01
 0.55444419466E+01 0.58080353720E+01 0.54311084281E+01 0.47842888842E+01 0.42085805987E+01
 0.38276890513E+01 0.36955412527E+01 0.38276925620E+01 0.42086015986E+01 0.47843494497E+01
 0.54312070140E+01 0.58081124154E+01 0.55443952343E+01 0.45528714215E+01 0.31442337056E+01
 -.33892458924E+00 -.33899904538E+00 0.87090787296E+00 0.27599444458E+01 0.45531039860E+01
 0.56303788991E+01 0.58034381529E+01 0.53282315489E+01 0.46800957684E+01 0.41682852584E+01
 0.38919927329E+01 0.38918977745E+01 0.41681237899E+01 0.46800962291E+01 0.53284429611E+01
 0.58036354992E+01 0.56303264890E+01 0.45528714215E+01 0.27598156244E+01 0.87098075719E+00
 -.17640997737E+01 -.10259690221E+01 0.87094824248E+00 0.31442269935E+01 0.49541119747E+01
 0.58059135244E+01 0.57235695825E+01 0.51303499685E+01 0.45211308305E+01 0.41077887497E+01
 0.39628358566E+01 0.41078204066E+01 0.45211380515E+01 0.51303327032E+01 0.57235845992E+01
 0.58059628504E+01 0.49541411522E+01 0.31442337056E+01 0.87098075719E+00 -.10259210747E+01
 0.29441535012E+00 0.19105877950E+01 0.38140560371E+01 0.52687628120E+01 0.58596624030E+01
 0.56408443581E+01 0.50163334679E+01 0.44190604710E+01 0.40181078435E+01 0.38781065483E+01
 0.40181248224E+01 0.44190438798E+01 0.50162791338E+01 0.56408200618E+01 0.58597113443E+01
 0.52688325153E+01 0.38140611349E+01 0.19105175530E+01 0.29434242663E+00 -.33894423196E+00
 0.19105877950E+01 0.35122261511E+01 0.49861294648E+01 0.57955987834E+01 0.58024718388E+01
 0.52665511516E+01 0.46238855472E+01 0.41263086155E+01 0.38595440239E+01 0.38594326739E+01
 0.41260980421E+01 0.46238058839E+01 0.52666843605E+01 0.58026709620E+01 0.57956635241E+01
 0.49860124876E+01 0.35120406402E+01 0.19104571806E+01 0.87088446018E+00 0.87092580713E+00
 0.38140560371E+01 0.49861294648E+01 0.57532146208E+01 0.58594339170E+01 0.54127490880E+01
 0.47660738897E+01 0.42072303685E+01 0.38405630259E+01 0.37138387077E+01 0.38405170113E+01
 0.42071705477E+01 0.47660494536E+01 0.54127717673E+01 0.58594505890E+01 0.57531905636E+01
 0.49861174200E+01 0.38141147369E+01 0.27598842667E+01 0.23374832405E+01 0.27598025341E+01
 0.52687628120E+01 0.57955987834E+01 0.58594339170E+01 0.54595398560E+01 0.48384404818E+01
 0.42568752876E+01 0.38256252032E+01 0.35994240937E+01 0.35995046066E+01 0.38257633380E+01
 0.42569027740E+01 0.48383247106E+01 0.54593782358E+01 0.58593316573E+01 0.57956356329E+01
 0.52689726728E+01 0.45531747351E+01 0.40499068962E+01 0.40497735671E+01 0.45528946699E+01
 0.58596624030E+01 0.58024718388E+01 0.54127490880E+01 0.48384404818E+01 0.42736369566E+01
 0.38178037895E+01 0.35278697781E+01 0.34291646469E+01 0.35279213932E+01 0.38178373561E+01
 0.42736258419E+01 0.48384261088E+01 0.54127554541E+01 0.58024755383E+01 0.58596576878E+01
 0.56303308024E+01 0.53281022362E+01 0.51928186999E+01 0.53280754802E+01 0.56303162337E+01
 0.56408443581E+01 0.52665511516E+01 0.47660738897E+01 0.42568752876E+01 0.38178037895E+01
 0.35037924831E+01 0.33423342743E+01 0.33422968519E+01 0.35037169300E+01 0.38177698896E+01
 0.42569442850E+01 0.47662264540E+01 0.52666785465E+01 0.56408204599E+01 0.58033922181E+01
 0.57952844436E+01 0.57398450062E+01 0.57399647753E+01 0.57955482006E+01 0.58035997013E+01
 0.50163334679E+01 0.46238855472E+01 0.42072303685E+01 0.38256252032E+01 0.35278697781E+01
 0.33423342743E+01 0.32797946877E+01 0.33423302957E+01 0.35278788387E+01 0.38256318167E+01
 0.42072005995E+01 0.46238325594E+01 0.50162954958E+01 0.53284245453E+01 0.55164600992E+01
 0.55955966158E+01 0.56137913608E+01 0.55956445118E+01 0.55165037782E+01 0.53284495452E+01
 0.44190604710E+01 0.41263086155E+01 0.38405630259E+01 0.35994240937E+01 0.34291646469E+01
 0.33422968519E+01 0.33423302957E+01 0.34292404055E+01 0.35994615293E+01 0.38404684263E+01
 0.41260891220E+01 0.44188665298E+01 0.46801196229E+01 0.48819254725E+01 0.50129334296E+01
 0.50743836537E+01 0.50742970458E+01 0.50127321935E+01 0.48817606883E+01 0.46801336348E+01
 0.40181078435E+01 0.38595440239E+01 0.37138387077E+01 0.35995046066E+01 0.35279213932E+01
 0.35037169300E+01 0.35278788387E+01 0.35994615293E+01 0.37138239436E+01 0.38595450629E+01
 0.40181008643E+01 0.41681111062E+01 0.42918829827E+01 0.43799637075E+01 0.44309754782E+01
 0.44474487992E+01 0.44309429066E+01 0.43799283797E+01 0.42918724706E+01 0.41681212839E+01
 0.38781065483E+01 0.38594326739E+01 0.38405170113E+01 0.38257633380E+01 0.38178373561E+01
 0.38177698896E+01 0.38256318167E+01 0.38404684263E+01 0.38595450629E+01 0.38783033323E+01
 0.38919872781E+01 0.38980531866E+01 0.38974136933E+01 0.38935614280E+01 0.38904305505E+01
 0.38904742581E+01 0.38936807980E+01 0.38975461164E+01 0.38980882731E+01 0.38918657388E+01
 0.40181248224E+01 0.41260980421E+01 0.42071705477E+01 0.42569027740E+01 0.42736258419E+01
 0.42569442850E+01 0.42072005995E+01 0.41260891220E+01 0.40181008643E+01 0.38919872781E+01
 0.37609517396E+01 0.36405917651E+01 0.35452049814E+01 0.34847149655E+01 0.34640955427E+01
 0.34847161320E+01 0.35452157737E+01 0.36406080182E+01 0.37609634556E+01 0.38920017868E+01
 0.44190438798E+01 0.46238058839E+01 0.47660494536E+01 0.48383247106E+01 0.48384261088E+01
 0.47662264540E+01 0.46238325594E+01 0.44188665298E+01 0.41681111062E+01 0.38980531866E+01
 0.36405917651E+01 0.34254842316E+01 0.32738016863E+01 0.31962391313E+01 0.31962403134E+01
 0.32737714494E+01 0.34253955873E+01 0.36405212828E+01 0.38981254952E+01 0.41683250949E+01
 0.50162791338E+01 0.52666843605E+01 0.54127717673E+01 0.54593782358E+01 0.54127554541E+01
 0.52666785465E+01 0.50162954958E+01 0.46801196229E+01 0.42918829827E+01 0.38974136933E+01
 0.35452049814E+01 0.32738016863E+01 0.31054880518E+01 0.30488346126E+01 0.31055169123E+01
 0.32738304149E+01 0.35452140666E+01 0.38974081925E+01 0.42918678477E+01 0.46800956987E+01
 0.56408200618E+01 0.58026709620E+01 0.58594505890E+01 0.58593316573E+01 0.58024755383E+01
 0.56408204599E+01 0.53284245453E+01 0.48819254725E+01 0.43799637075E+01 0.38935614280E+01
 0.34847149655E+01 0.31962391313E+01 0.30488346126E+01 0.30487990477E+01 0.31962077251E+01
 0.34847904584E+01 0.38936877219E+01 0.43799530358E+01 0.48817141829E+01 0.53282019969E+01
 0.58597113443E+01 0.57956635241E+01 0.57531905636E+01 0.57956356329E+01 0.58596576878E+01
 0.58033922181E+01 0.55164600992E+01 0.50129334296E+01 0.44309754782E+01 0.38904305505E+01
 0.34640955427E+01 0.31962403134E+01 0.31055169123E+01 0.31962077251E+01 0.34640545174E+01
 0.38903996394E+01 0.44309572053E+01 0.50129368635E+01 0.55164944411E+01 0.58034505868E+01
 0.52688325153E+01 0.49860124876E+01 0.49861174200E+01 0.52689726728E+01 0.56303308024E+01
 0.57952844436E+01 0.55955966158E+01 0.50743836537E+01 0.44474487992E+01 0.38904742581E+01
 0.34847161320E+01 0.32737714494E+01 0.32738304149E+01 0.34847904584E+01 0.38903996394E+01
 0.44472540997E+01 0.50743059567E+01 0.55957868785E+01 0.57955762723E+01 0.56304241662E+01
 0.38140611349E+01 0.35120406402E+01 0.38141147369E+01 0.45531747351E+01 0.53281022362E+01
 0.57398450062E+01 0.56137913608E+01 0.50742970458E+01 0.44309429066E+01 0.38936807980E+01
 0.35452157737E+01 0.34253955873E+01 0.35452140666E+01 0.38936877219E+01 0.44309572053E+01
 0.50743059567E+01 0.56137885196E+01 0.57398298439E+01 0.53280627072E+01 0.45531111046E+01
 0.19105175530E+01 0.19104571806E+01 0.27598842667E+01 0.40499068962E+01 0.51928186999E+01
 0.57399647753E+01 0.55956445118E+01 0.50127321935E+01 0.43799283797E+01 0.38975461164E+01
 0.36406080182E+01 0.36405212828E+01 0.38974081925E+01 0.43799530358E+01 0.50129368635E+01
 0.55957868785E+01 0.57398298439E+01 0.51925090246E+01 0.40497215023E+01 0.27599204477E+01
 0.29434242663E+00 0.87088446018E+00 0.23374832405E+01 0.40497735671E+01 0.53280754802E+01
 0.57955482006E+01 0.55165037782E+01 0.48817606883E+01 0.42918724706E+01 0.38980882731E+01
 0.37609634556E+01 0.38981254952E+01 0.42918678477E+01 0.48817141829E+01 0.55164944411E+01
 0.57955762723E+01 0.53280627072E+01 0.40497215023E+01 0.23374730582E+01 0.87091824647E+00
 -.33894423196E+00 0.87092580713E+00 0.27598025341E+01 0.45528946699E+01 0.56303162337E+01
 0.58035997013E+01 0.53284495452E+01 0.46801336348E+01 0.41681212839E+01 0.38918657388E+01
 0.38920017868E+01 0.41683250949E+01 0.46800956987E+01 0.53282019969E+01 0.58034505868E+01
 0.56304241662E+01 0.45531111046E+01 0.27599204477E+01 0.87091824647E+00 -.33896846931E+00
 0.27790957803E+01 0.40985775734E+01 0.52687659341E+01 0.58338336356E+01 0.56980808592E+01
 0.51182135177E+01 0.44863787045E+01 0.40043921140E+01 0.37475955664E+01 0.37474777064E+01
 0.40041974225E+01 0.44863451719E+01 0.51183028462E+01 0.56980418541E+01 0.58336175107E+01
 0.52686821289E+01 0.40989103174E+01 0.27796667343E+01 0.19105361599E+01 0.19102506648E+01
 0.40985775734E+01 0.51436642677E+01 0.57956116597E+01 0.58253077173E+01 0.53474468629E+01
 0.47024545367E+01 0.41518161952E+01 0.37919567435E+01 0.36678114216E+01 0.37919135649E+01
 0.41517707879E+01 0.47024087227E+01 0.53473523215E+01 0.58251698095E+01 0.57955571920E+01
 0.51438315982E+01 0.40989267852E+01 0.31445047018E+01 0.27599170506E+01 0.31442130856E+01
 0.52687659341E+01 0.57956116597E+01 0.58594622235E+01 0.54595669155E+01 0.48384510301E+01
 0.42568804826E+01 0.38256393255E+01 0.35994374665E+01 0.35995044978E+01 0.38257599190E+01
 0.42569084343E+01 0.48383287542E+01 0.54593678183E+01 0.58593167469E+01 0.57956276352E+01
 0.52689598150E+01 0.45531451037E+01 0.40498753866E+01 0.40497599628E+01 0.45528948195E+01
 0.58338336356E+01 0.58253077173E+01 0.54595669155E+01 0.48846285268E+01 0.43112330102E+01
 0.38468522577E+01 0.35508737843E+01 0.34499785344E+01 0.35508984157E+01 0.38469486922E+01
 0.43113709166E+01 0.48846442115E+01 0.54593352083E+01 0.58249708276E+01 0.58337288958E+01
 0.55447022307E+01 0.51929018696E+01 0.50382119636E+01 0.51925719614E+01 0.55444405517E+01
 0.56980808592E+01 0.53474468629E+01 0.48384510301E+01 0.43112330102E+01 0.38540519498E+01
 0.35260574017E+01 0.33571107660E+01 0.33570749968E+01 0.35260285547E+01 0.38541415832E+01
 0.43113980053E+01 0.48385070880E+01 0.53473007029E+01 0.56978656236E+01 0.58080254649E+01
 0.57399142717E+01 0.56446234003E+01 0.56445632375E+01 0.57398415876E+01 0.58081082451E+01
 0.51182135177E+01 0.47024545367E+01 0.42568804826E+01 0.38468522577E+01 0.35260574017E+01
 0.33258308998E+01 0.32582716544E+01 0.33257988351E+01 0.35260283874E+01 0.38468671328E+01
 0.42569648979E+01 0.47025926129E+01 0.51183057685E+01 0.54310897643E+01 0.55954910421E+01
 0.56462740752E+01 0.56521700353E+01 0.56465236135E+01 0.55957589477E+01 0.54311738724E+01
 0.44863787045E+01 0.41518161952E+01 0.38256393255E+01 0.35508737843E+01 0.33571107660E+01
 0.32582716544E+01 0.32582602795E+01 0.33571001008E+01 0.35508881162E+01 0.38256582215E+01
 0.41518171104E+01 0.44863717448E+01 0.47843329616E+01 0.50128586947E+01 0.51549282324E+01
 0.52173202562E+01 0.52173847521E+01 0.51550559635E+01 0.50129450613E+01 0.47843586939E+01
 0.40043921140E+01 0.37919567435E+01 0.35994374665E+01 0.34499785344E+01 0.33570749968E+01
 0.33257988351E+01 0.33571001008E+01 0.34500346896E+01 0.35994740996E+01 0.37918898622E+01
 0.40042210331E+01 0.42084803347E+01 0.43799761410E+01 0.45039814916E+01 0.45766693144E+01
 0.46002679389E+01 0.45765527627E+01 0.45038651221E+01 0.43799891311E+01 0.42086336079E+01
 0.37475955664E+01 0.36678114216E+01 0.35995044978E+01 0.35508984157E+01 0.35260285547E+01
 0.35260283874E+01 0.35508881162E+01 0.35994740996E+01 0.36677760829E+01 0.37475822057E+01
 0.38276921797E+01 0.38974269677E+01 0.39500274998E+01 0.39836413246E+01 0.39996062064E+01
 0.39996002007E+01 0.39836250723E+01 0.39500033395E+01 0.38973997361E+01 0.38276771499E+01
 0.37474777064E+01 0.37919135649E+01 0.38257599190E+01 0.38469486922E+01 0.38541415832E+01
 0.38468671328E+01 0.38256582215E+01 0.37918898622E+01 0.37475822057E+01 0.36956642856E+01
 0.36405761520E+01 0.35883424676E+01 0.35455231573E+01 0.35176079190E+01 0.35079668027E+01
 0.35176798071E+01 0.35456174569E+01 0.35883688704E+01 0.36404784602E+01 0.36954990629E+01
 0.40041974225E+01 0.41517707879E+01 0.42569084343E+01 0.43113709166E+01 0.43113980053E+01
 0.42569648979E+01 0.41518171104E+01 0.40042210331E+01 0.38276921797E+01 0.36405761520E+01
 0.34636294962E+01 0.33160018698E+01 0.32116000187E+01 0.31579900264E+01 0.31579802478E+01
 0.32115940148E+01 0.33160291541E+01 0.34636753609E+01 0.36406040392E+01 0.38276910489E+01
 0.44863451719E+01 0.47024087227E+01 0.48383287542E+01 0.48846442115E+01 0.48385070880E+01
 0.47025926129E+01 0.44863717448E+01 0.42084803347E+01 0.38974269677E+01 0.35883424676E+01
 0.33160018698E+01 0.31074215493E+01 0.29782832269E+01 0.29348015102E+01 0.29782655696E+01
 0.31073832022E+01 0.33159783583E+01 0.35883985244E+01 0.38975711625E+01 0.42086067781E+01
 0.51183028462E+01 0.53473523215E+01 0.54593678183E+01 0.54593352083E+01 0.53473007029E+01
 0.51183057685E+01 0.47843329616E+01 0.43799761410E+01 0.39500274998E+01 0.35455231573E+01
 0.32116000187E+01 0.29782832269E+01 0.28596180175E+01 0.28596238493E+01 0.29782974725E+01
 0.32116160433E+01 0.35455283545E+01 0.39500006685E+01 0.43799096146E+01 0.47842689221E+01
 0.56980418541E+01 0.58251698095E+01 0.58593167469E+01 0.58249708276E+01 0.56978656236E+01
 0.54310897643E+01 0.50128586947E+01 0.45039814916E+01 0.39836413246E+01 0.35176079190E+01
 0.31579900264E+01 0.29348015102E+01 0.28596238493E+01 0.29348018205E+01 0.31580218109E+01
 0.35176551838E+01 0.39836164764E+01 0.45038300339E+01 0.50126795995E+01 0.54310631108E+01
 0.58336175107E+01 0.57955571920E+01 0.57956276352E+01 0.58337288958E+01 0.58080254649E+01
 0.55954910421E+01 0.51549282324E+01 0.45766693144E+01 0.39996062064E+01 0.35079668027E+01
 0.31579802478E+01 0.29782655696E+01 0.29782974725E+01 0.31580218109E+01 0.35079383672E+01
 0.39995297774E+01 0.45766642413E+01 0.51550494566E+01 0.55956305896E+01 0.58080361064E+01
 0.52686821289E+01 0.51438315982E+01 0.52689598150E+01 0.55447022307E+01 0.57399142717E+01
 0.56462740752E+01 0.52173202562E+01 0.46002679389E+01 0.39996002007E+01 0.35176798071E+01
 0.32115940148E+01 0.31073832022E+01 0.32116160433E+01 0.35176551838E+01 0.39995297774E+01
 0.46002828640E+01 0.52175230662E+01 0.56465432438E+01 0.57399791979E+01 0.55444695289E+01
 0.40989103174E+01 0.40989267852E+01 0.45531451037E+01 0.51929018696E+01 0.56446234003E+01
 0.56521700353E+01 0.52173847521E+01 0.45765527627E+01 0.39836250723E+01 0.35456174569E+01
 0.33160291541E+01 0.33159783583E+01 0.35455283545E+01 0.39836164764E+01 0.45766642413E+01
 0.52175230662E+01 0.56522105376E+01 0.56445446933E+01 0.51927902640E+01 0.45530796933E+01
 0.27796667343E+01 0.31445047018E+01 0.40498753866E+01 0.50382119636E+01 0.56445632375E+01
 0.56465236135E+01 0.51550559635E+01 0.45038651221E+01 0.39500033395E+01 0.35883688704E+01
 0.34636753609E+01 0.35883985244E+01 0.39500006685E+01 0.45038300339E+01 0.51550494566E+01
 0.56465432438E+01 0.56445446933E+01 0.50381563338E+01 0.40498508578E+01 0.31445201889E+01
 0.19105361599E+01 0.27599170506E+01 0.40497599628E+01 0.51925719614E+01 0.57398415876E+01
 0.55957589477E+01 0.50129450613E+01 0.43799891311E+01 0.38973997361E+01 0.36404784602E+01
 0.36406040392E+01 0.38975711625E+01 0.43799096146E+01 0.50126795995E+01 0.55956305896E+01
 0.57399791979E+01 0.51927902640E+01 0.40498508578E+01 0.27598808164E+01 0.19105014628E+01
 0.19102506648E+01 0.31442130856E+01 0.45528948195E+01 0.55444405517E+01 0.58081082451E+01
 0.54311738724E+01 0.47843586939E+01 0.42086336079E+01 0.38276771499E+01 0.36954990629E+01
 0.38276910489E+01 0.42086067781E+01 0.47842689221E+01 0.54310631108E+01 0.58080361064E+01
 0.55444695289E+01 0.45530796933E+01 0.31445201889E+01 0.19105014628E+01 0.14210121416E+01
 0.47913211118E+01 0.55048213856E+01 0.58596859753E+01 0.56981033210E+01 0.51511079915E+01
 0.45189809274E+01 0.39934894816E+01 0.36535789627E+01 0.35368594369E+01 0.36535371671E+01
 0.39934800838E+01 0.45190227066E+01 0.51511356386E+01 0.56980865175E+01 0.58596809998E+01
 0.55048806449E+01 0.47914163213E+01 0.40989138453E+01 0.38140852542E+01 0.40988482551E+01
 0.55048213856E+01 0.58621301388E+01 0.58024972684E+01 0.53474635968E+01 0.47286674967E+01
 0.41640612014E+01 0.37485930068E+01 0.35315817760E+01 0.35316483648E+01 0.37486985384E+01