   1   1   1   0
  0.1482975E+02  0.2757716E-09  0.2757716E-09  0.2757716E-09  0.5000000E-15
   1.0000000000000000E-004
  CAR 
 fcc Si                                  
     29.14800844     -6.37788427  301      9.91298931      1.00000000
     -6.378  0.0000E+00  0.0000E+00
     -6.259  0.0000E+00  0.0000E+00
     -6.141  0.0000E+00  0.0000E+00
     -6.023  0.0000E+00  0.0000E+00
     -5.904  0.0000E+00  0.0000E+00
     -5.786  0.0000E+00  0.0000E+00
     -5.667  0.0000E+00  0.0000E+00
     -5.549  0.0000E+00  0.0000E+00
     -5.431  0.0000E+00  0.0000E+00
     -5.312  0.0000E+00  0.0000E+00
     -5.194  0.0000E+00  0.0000E+00
     -5.075  0.0000E+00  0.0000E+00
     -4.957  0.0000E+00  0.0000E+00
     -4.838  0.0000E+00  0.0000E+00
     -4.720  0.0000E+00  0.0000E+00
     -4.602  0.0000E+00  0.0000E+00
     -4.483  0.0000E+00  0.0000E+00
     -4.365  0.4431E-03  0.1940E-05
     -4.246  0.4036E-01  0.1941E-02
     -4.128  0.4656E-01  0.6655E-02
     -4.009  0.6343E-01  0.1317E-01
     -3.891  0.6971E-01  0.2117E-01
     -3.773  0.7893E-01  0.2995E-01
     -3.654  0.8889E-01  0.3988E-01
     -3.536  0.9648E-01  0.5097E-01
     -3.417  0.1023E+00  0.6274E-01
     -3.299  0.1079E+00  0.7518E-01
     -3.181  0.1147E+00  0.8835E-01
     -3.062  0.1220E+00  0.1024E+00
     -2.944  0.1282E+00  0.1172E+00
     -2.825  0.1318E+00  0.1326E+00
     -2.707  0.1366E+00  0.1485E+00
     -2.588  0.1415E+00  0.1650E+00
     -2.470  0.1467E+00  0.1820E+00
     -2.352  0.1523E+00  0.1997E+00
     -2.233  0.1579E+00  0.2181E+00
     -2.115  0.1614E+00  0.2370E+00
     -1.996  0.1649E+00  0.2563E+00
     -1.878  0.1688E+00  0.2761E+00
     -1.760  0.1731E+00  0.2963E+00
     -1.641  0.1774E+00  0.3171E+00
     -1.523  0.1817E+00  0.3383E+00
     -1.404  0.1862E+00  0.3601E+00
     -1.286  0.1907E+00  0.3824E+00
     -1.167  0.1937E+00  0.4052E+00
     -1.049  0.1970E+00  0.4283E+00
     -0.931  0.2004E+00  0.4518E+00
     -0.812  0.2038E+00  0.4758E+00
     -0.694  0.2075E+00  0.5001E+00
     -0.575  0.2113E+00  0.5249E+00
     -0.457  0.2152E+00  0.5502E+00
     -0.338  0.2191E+00  0.5759E+00
     -0.220  0.2231E+00  0.6021E+00
     -0.102  0.2259E+00  0.6286E+00
      0.017  0.2288E+00  0.6556E+00
      0.135  0.2319E+00  0.6828E+00
      0.254  0.2351E+00  0.7105E+00
      0.372  0.2384E+00  0.7385E+00
      0.490  0.2416E+00  0.7669E+00
      0.609  0.2451E+00  0.7958E+00
      0.727  0.2487E+00  0.8250E+00
      0.846  0.2523E+00  0.8546E+00
      0.964  0.2561E+00  0.8848E+00
      1.083  0.2594E+00  0.9153E+00
      1.201  0.2625E+00  0.9462E+00
      1.319  0.2659E+00  0.9775E+00
      1.438  0.2697E+00  0.1009E+01
      1.556  0.2745E+00  0.1041E+01
      1.675  0.2802E+00  0.1074E+01
      1.793  0.2895E+00  0.1108E+01
      1.911  0.2987E+00  0.1143E+01
      2.030  0.3067E+00  0.1179E+01
      2.148  0.3410E+00  0.1217E+01
      2.267  0.3313E+00  0.1257E+01
      2.385  0.3046E+00  0.1295E+01
      2.504  0.2947E+00  0.1330E+01
      2.622  0.2879E+00  0.1364E+01
      2.740  0.3139E+00  0.1400E+01
      2.859  0.2855E+00  0.1435E+01
      2.977  0.2730E+00  0.1468E+01
      3.096  0.2911E+00  0.1503E+01
      3.214  0.2592E+00  0.1534E+01
      3.333  0.2599E+00  0.1565E+01
      3.451  0.2710E+00  0.1596E+01
      3.569  0.2800E+00  0.1629E+01
      3.688  0.2879E+00  0.1663E+01
      3.806  0.3102E+00  0.1698E+01
      3.925  0.3563E+00  0.1737E+01
      4.043  0.3273E+00  0.1781E+01
      4.161  0.3251E+00  0.1819E+01
      4.280  0.3295E+00  0.1858E+01
      4.398  0.3403E+00  0.1898E+01
      4.517  0.3495E+00  0.1939E+01
      4.635  0.3702E+00  0.1981E+01
      4.754  0.3588E+00  0.2025E+01
      4.872  0.3415E+00  0.2066E+01
      4.990  0.3345E+00  0.2106E+01
      5.109  0.3283E+00  0.2146E+01
      5.227  0.3063E+00  0.2183E+01
      5.346  0.3056E+00  0.2219E+01
      5.464  0.2985E+00  0.2255E+01
      5.582  0.2866E+00  0.2290E+01
      5.701  0.2878E+00  0.2323E+01
      5.819  0.3330E+00  0.2359E+01
      5.938  0.4416E+00  0.2404E+01
      6.056  0.4111E+00  0.2454E+01
      6.175  0.4124E+00  0.2503E+01
      6.293  0.4084E+00  0.2552E+01
      6.411  0.4060E+00  0.2600E+01
      6.530  0.4103E+00  0.2648E+01
      6.648  0.4365E+00  0.2700E+01
      6.767  0.3820E+00  0.2747E+01
      6.885  0.3501E+00  0.2791E+01
      7.004  0.3460E+00  0.2831E+01
      7.122  0.3331E+00  0.2871E+01
      7.240  0.3268E+00  0.2910E+01
      7.359  0.3288E+00  0.2949E+01
      7.477  0.3617E+00  0.2990E+01
      7.596  0.3840E+00  0.3034E+01
      7.714  0.4091E+00  0.3081E+01
      7.832  0.4493E+00  0.3132E+01
      7.951  0.4261E+00  0.3186E+01
      8.069  0.4011E+00  0.3233E+01
      8.188  0.4015E+00  0.3281E+01
      8.306  0.4089E+00  0.3329E+01
      8.425  0.4254E+00  0.3378E+01
      8.543  0.4015E+00  0.3426E+01
      8.661  0.3996E+00  0.3474E+01
      8.780  0.3993E+00  0.3521E+01
      8.898  0.3862E+00  0.3568E+01
      9.017  0.3879E+00  0.3614E+01
      9.135  0.4531E+00  0.3665E+01
      9.254  0.4262E+00  0.3715E+01
      9.372  0.4268E+00  0.3766E+01
      9.490  0.4396E+00  0.3817E+01
      9.609  0.4289E+00  0.3869E+01
      9.727  0.4401E+00  0.3920E+01
      9.846  0.4268E+00  0.3971E+01
      9.964  0.4312E+00  0.4022E+01
     10.082  0.4361E+00  0.4073E+01
     10.201  0.4416E+00  0.4125E+01
     10.319  0.4492E+00  0.4178E+01
     10.438  0.4539E+00  0.4232E+01
     10.556  0.4529E+00  0.4285E+01
     10.675  0.4722E+00  0.4341E+01
     10.793  0.4623E+00  0.4396E+01
     10.911  0.4615E+00  0.4450E+01
     11.030  0.4575E+00  0.4505E+01
     11.148  0.4583E+00  0.4559E+01
     11.267  0.4618E+00  0.4614E+01
     11.385  0.4733E+00  0.4669E+01
     11.503  0.4818E+00  0.4725E+01
     11.622  0.4966E+00  0.4783E+01
     11.740  0.4884E+00  0.4842E+01
     11.859  0.4892E+00  0.4900E+01
     11.977  0.5304E+00  0.4958E+01
     12.096  0.5218E+00  0.5019E+01
     12.214  0.5166E+00  0.5081E+01
     12.332  0.5146E+00  0.5142E+01
     12.451  0.5253E+00  0.5203E+01
     12.569  0.5416E+00  0.5266E+01
     12.688  0.5650E+00  0.5332E+01
     12.806  0.5784E+00  0.5400E+01
     12.925  0.5870E+00  0.5469E+01
     13.043  0.6066E+00  0.5540E+01
     13.161  0.5999E+00  0.5610E+01
     13.280  0.5715E+00  0.5680E+01
     13.398  0.5632E+00  0.5747E+01
     13.517  0.5590E+00  0.5814E+01
     13.635  0.5590E+00  0.5880E+01
     13.753  0.5434E+00  0.5945E+01
     13.872  0.5325E+00  0.6009E+01
     13.990  0.5241E+00  0.6071E+01
     14.109  0.5134E+00  0.6133E+01
     14.227  0.5056E+00  0.6193E+01
     14.346  0.4987E+00  0.6253E+01
     14.464  0.4902E+00  0.6311E+01
     14.582  0.4829E+00  0.6369E+01
     14.701  0.4768E+00  0.6426E+01
     14.819  0.4723E+00  0.6482E+01
     14.938  0.4693E+00  0.6538E+01
     15.056  0.4718E+00  0.6593E+01
     15.174  0.4715E+00  0.6649E+01
     15.293  0.4733E+00  0.6705E+01
     15.411  0.4753E+00  0.6761E+01
     15.530  0.4729E+00  0.6817E+01
     15.648  0.4703E+00  0.6873E+01
     15.767  0.4652E+00  0.6929E+01
     15.885  0.4622E+00  0.6984E+01
     16.003  0.4605E+00  0.7038E+01
     16.122  0.4595E+00  0.7093E+01
     16.240  0.4622E+00  0.7147E+01
     16.359  0.4684E+00  0.7202E+01
     16.477  0.4748E+00  0.7258E+01
     16.596  0.4807E+00  0.7315E+01
     16.714  0.4895E+00  0.7372E+01
     16.832  0.4955E+00  0.7430E+01
     16.951  0.5008E+00  0.7489E+01
     17.069  0.5036E+00  0.7549E+01
     17.188  0.5068E+00  0.7609E+01
     17.306  0.5084E+00  0.7669E+01
     17.424  0.5136E+00  0.7729E+01
     17.543  0.5199E+00  0.7791E+01
     17.661  0.5261E+00  0.7852E+01
     17.780  0.5273E+00  0.7915E+01
     17.898  0.5271E+00  0.7977E+01
     18.017  0.5271E+00  0.8040E+01
     18.135  0.5303E+00  0.8102E+01
     18.253  0.5158E+00  0.8164E+01
     18.372  0.5186E+00  0.8225E+01
     18.490  0.5143E+00  0.8286E+01
     18.609  0.5135E+00  0.8347E+01
     18.727  0.5156E+00  0.8408E+01
     18.845  0.5180E+00  0.8469E+01
     18.964  0.5185E+00  0.8531E+01
     19.082  0.5216E+00  0.8592E+01
     19.201  0.5275E+00  0.8654E+01
     19.319  0.5355E+00  0.8717E+01
     19.438  0.5441E+00  0.8781E+01
     19.556  0.5532E+00  0.8846E+01
     19.674  0.5622E+00  0.8912E+01
     19.793  0.5742E+00  0.8979E+01
     19.911  0.5882E+00  0.9048E+01
     20.030  0.6061E+00  0.9119E+01
     20.148  0.6409E+00  0.9192E+01
     20.267  0.6953E+00  0.9272E+01
     20.385  0.7172E+00  0.9356E+01
     20.503  0.7021E+00  0.9440E+01
     20.622  0.6592E+00  0.9521E+01
     20.740  0.6116E+00  0.9596E+01
     20.859  0.5890E+00  0.9666E+01
     20.977  0.5890E+00  0.9736E+01
     21.095  0.5988E+00  0.9806E+01
     21.214  0.6241E+00  0.9879E+01
     21.332  0.6265E+00  0.9953E+01
     21.451  0.5685E+00  0.1002E+02
     21.569  0.5779E+00  0.1009E+02
     21.688  0.5596E+00  0.1016E+02
     21.806  0.5212E+00  0.1022E+02
     21.924  0.5050E+00  0.1028E+02
     22.043  0.5046E+00  0.1034E+02
     22.161  0.4855E+00  0.1040E+02
     22.280  0.4847E+00  0.1046E+02
     22.398  0.4891E+00  0.1052E+02
     22.517  0.5230E+00  0.1058E+02
     22.635  0.5917E+00  0.1064E+02
     22.753  0.5866E+00  0.1071E+02
     22.872  0.6594E+00  0.1078E+02
     22.990  0.6319E+00  0.1086E+02
     23.109  0.6932E+00  0.1094E+02
     23.227  0.6926E+00  0.1102E+02
     23.345  0.6927E+00  0.1110E+02
     23.464  0.7426E+00  0.1119E+02
     23.582  0.7422E+00  0.1127E+02
     23.701  0.7103E+00  0.1136E+02
     23.819  0.6422E+00  0.1144E+02
     23.938  0.4786E+00  0.1151E+02
     24.056  0.4280E+00  0.1156E+02
     24.174  0.4248E+00  0.1161E+02
     24.293  0.3430E+00  0.1166E+02
     24.411  0.3147E+00  0.1170E+02
     24.530  0.2855E+00  0.1173E+02
     24.648  0.2438E+00  0.1176E+02
     24.766  0.2238E+00  0.1179E+02
     24.885  0.2203E+00  0.1182E+02
     25.003  0.1828E+00  0.1184E+02
     25.122  0.1519E+00  0.1186E+02
     25.240  0.1216E+00  0.1188E+02
     25.359  0.1069E+00  0.1189E+02
     25.477  0.9841E-01  0.1190E+02
     25.595  0.9037E-01  0.1192E+02
     25.714  0.8284E-01  0.1193E+02
     25.832  0.7580E-01  0.1193E+02
     25.951  0.6925E-01  0.1194E+02
     26.069  0.6334E-01  0.1195E+02
     26.188  0.5825E-01  0.1196E+02
     26.306  0.5397E-01  0.1197E+02
     26.424  0.5245E-01  0.1197E+02
     26.543  0.5611E-01  0.1198E+02
     26.661  0.6236E-01  0.1198E+02
     26.780  0.4824E-01  0.1199E+02
     26.898  0.3242E-01  0.1200E+02
     27.016  0.1548E-01  0.1200E+02
     27.135  0.2255E-03  0.1200E+02
     27.253  0.0000E+00  0.1200E+02
     27.372  0.0000E+00  0.1200E+02
     27.490  0.0000E+00  0.1200E+02
     27.609  0.0000E+00  0.1200E+02
     27.727  0.0000E+00  0.1200E+02
     27.845  0.0000E+00  0.1200E+02
     27.964  0.0000E+00  0.1200E+02
     28.082  0.0000E+00  0.1200E+02
     28.201  0.0000E+00  0.1200E+02
     28.319  0.0000E+00  0.1200E+02
     28.437  0.0000E+00  0.1200E+02
     28.556  0.0000E+00  0.1200E+02
     28.674  0.0000E+00  0.1200E+02
     28.793  0.0000E+00  0.1200E+02
     28.911  0.0000E+00  0.1200E+02
     29.030  0.0000E+00  0.1200E+02
     29.148  0.0000E+00  0.1200E+02
     29.14800844     -6.37788427  301      9.91298931      1.00000000
     -6.378  0.0000E+00  0.0000E+00  0.0000E+00  0.0000E+00  0.0000E+00  0.0000E+00  0.0000E+00  0.0000E+00  0.0000E+00
     -6.259  0.0000E+00  0.0000E+00  0.0000E+00  0.0000E+00  0.0000E+00  0.0000E+00  0.0000E+00  0.0000E+00  0.0000E+00
     -6.141  0.0000E+00  0.0000E+00  0.0000E+00  0.0000E+00  0.0000E+00  0.0000E+00  0.0000E+00  0.0000E+00  0.0000E+00
     -6.023  0.0000E+00  0.0000E+00  0.0000E+00  0.0000E+00  0.0000E+00  0.0000E+00  0.0000E+00  0.0000E+00  0.0000E+00
     -5.904  0.0000E+00  0.0000E+00  0.0000E+00  0.0000E+00  0.0000E+00  0.0000E+00  0.0000E+00  0.0000E+00  0.0000E+00
     -5.786  0.0000E+00  0.0000E+00  0.0000E+00  0.0000E+00  0.0000E+00  0.0000E+00  0.0000E+00  0.0000E+00  0.0000E+00
     -5.667  0.0000E+00  0.0000E+00  0.0000E+00  0.0000E+00  0.0000E+00  0.0000E+00  0.0000E+00  0.0000E+00  0.0000E+00
     -5.549  0.0000E+00  0.0000E+00  0.0000E+00  0.0000E+00  0.0000E+00  0.0000E+00  0.0000E+00  0.0000E+00  0.0000E+00
     -5.431  0.0000E+00  0.0000E+00  0.0000E+00  0.0000E+00  0.0000E+00  0.0000E+00  0.0000E+00  0.0000E+00  0.0000E+00
     -5.312  0.0000E+00  0.0000E+00  0.0000E+00  0.0000E+00  0.0000E+00  0.0000E+00  0.0000E+00  0.0000E+00  0.0000E+00
     -5.194  0.0000E+00  0.0000E+00  0.0000E+00  0.0000E+00  0.0000E+00  0.0000E+00  0.0000E+00  0.0000E+00  0.0000E+00
     -5.075  0.0000E+00  0.0000E+00  0.0000E+00  0.0000E+00  0.0000E+00  0.0000E+00  0.0000E+00  0.0000E+00  0.0000E+00
     -4.957  0.0000E+00  0.0000E+00  0.0000E+00  0.0000E+00  0.0000E+00  0.0000E+00  0.0000E+00  0.0000E+00  0.0000E+00
     -4.838  0.0000E+00  0.0000E+00  0.0000E+00  0.0000E+00  0.0000E+00  0.0000E+00  0.0000E+00  0.0000E+00  0.0000E+00
     -4.720  0.0000E+00  0.0000E+00  0.0000E+00  0.0000E+00  0.0000E+00  0.0000E+00  0.0000E+00  0.0000E+00  0.0000E+00
     -4.602  0.0000E+00  0.0000E+00  0.0000E+00  0.0000E+00  0.0000E+00  0.0000E+00  0.0000E+00  0.0000E+00  0.0000E+00
     -4.483  0.0000E+00  0.0000E+00  0.0000E+00  0.0000E+00  0.0000E+00  0.0000E+00  0.0000E+00  0.0000E+00  0.0000E+00
     -4.365  0.1693E-03  0.4059E-06  0.4059E-06  0.4059E-06  0.0000E+00  0.0000E+00  0.0000E+00  0.0000E+00  0.0000E+00
     -4.246  0.1541E-01  0.4136E-04  0.4136E-04  0.4136E-04  0.0000E+00  0.0000E+00  0.0000E+00  0.0000E+00  0.0000E+00
     -4.128  0.1761E-01  0.1131E-03  0.1131E-03  0.1131E-03  0.0000E+00  0.0000E+00  0.0000E+00  0.0000E+00  0.0000E+00
     -4.009  0.2388E-01  0.1942E-03  0.1942E-03  0.1942E-03  0.0000E+00  0.0000E+00  0.0000E+00  0.0000E+00  0.0000E+00
     -3.891  0.2598E-01  0.3115E-03  0.3115E-03  0.3115E-03  0.0000E+00  0.0000E+00  0.0000E+00  0.0000E+00  0.0000E+00
     -3.773  0.2923E-01  0.4234E-03  0.4234E-03  0.4234E-03  0.0000E+00  0.0000E+00  0.0000E+00  0.0000E+00  0.0000E+00
     -3.654  0.3274E-01  0.5416E-03  0.5416E-03  0.5416E-03  0.0000E+00  0.0000E+00  0.0000E+00  0.0000E+00  0.0000E+00
     -3.536  0.3527E-01  0.6825E-03  0.6825E-03  0.6825E-03  0.0000E+00  0.0000E+00  0.0000E+00  0.0000E+00  0.0000E+00
     -3.417  0.3710E-01  0.8364E-03  0.8364E-03  0.8364E-03  0.0000E+00  0.0000E+00  0.0000E+00  0.0000E+00  0.0000E+00
     -3.299  0.3881E-01  0.9964E-03  0.9964E-03  0.9964E-03  0.0000E+00  0.0000E+00  0.0000E+00  0.0000E+00  0.0000E+00
     -3.181  0.4099E-01  0.1152E-02  0.1152E-02  0.1152E-02  0.0000E+00  0.0000E+00  0.0000E+00  0.0000E+00  0.0000E+00
     -3.062  0.4337E-01  0.1310E-02  0.1310E-02  0.1310E-02  0.0000E+00  0.0000E+00  0.0000E+00  0.0000E+00  0.0000E+00
     -2.944  0.4528E-01  0.1485E-02  0.1485E-02  0.1485E-02  0.0000E+00  0.0000E+00  0.0000E+00  0.0000E+00  0.0000E+00
     -2.825  0.4612E-01  0.1687E-02  0.1687E-02  0.1687E-02  0.0000E+00  0.0000E+00  0.0000E+00  0.0000E+00  0.0000E+00
     -2.707  0.4744E-01  0.1880E-02  0.1880E-02  0.1880E-02  0.0000E+00  0.0000E+00  0.0000E+00  0.0000E+00  0.0000E+00
     -2.588  0.4877E-01  0.2075E-02  0.2075E-02  0.2075E-02  0.0000E+00  0.0000E+00  0.0000E+00  0.0000E+00  0.0000E+00
     -2.470  0.5024E-01  0.2270E-02  0.2270E-02  0.2270E-02  0.0000E+00  0.0000E+00  0.0000E+00  0.0000E+00  0.0000E+00
     -2.352  0.5184E-01  0.2465E-02  0.2465E-02  0.2465E-02  0.0000E+00  0.0000E+00  0.0000E+00  0.0000E+00  0.0000E+00
     -2.233  0.5349E-01  0.2663E-02  0.2663E-02  0.2663E-02  0.0000E+00  0.0000E+00  0.0000E+00  0.0000E+00  0.0000E+00
     -2.115  0.5420E-01  0.2895E-02  0.2895E-02  0.2895E-02  0.0000E+00  0.0000E+00  0.0000E+00  0.0000E+00  0.0000E+00
     -1.996  0.5492E-01  0.3129E-02  0.3129E-02  0.3129E-02  0.0000E+00  0.0000E+00  0.0000E+00  0.0000E+00  0.0000E+00
     -1.878  0.5579E-01  0.3360E-02  0.3360E-02  0.3360E-02  0.0000E+00  0.0000E+00  0.0000E+00  0.0000E+00  0.0000E+00
     -1.760  0.5682E-01  0.3586E-02  0.3586E-02  0.3586E-02  0.0000E+00  0.0000E+00  0.0000E+00  0.0000E+00  0.0000E+00
     -1.641  0.5785E-01  0.3815E-02  0.3815E-02  0.3815E-02  0.0000E+00  0.0000E+00  0.0000E+00  0.0000E+00  0.0000E+00
     -1.523  0.5889E-01  0.4047E-02  0.4047E-02  0.4047E-02  0.0000E+00  0.0000E+00  0.0000E+00  0.0000E+00  0.0000E+00
     -1.404  0.6003E-01  0.4276E-02  0.4276E-02  0.4276E-02  0.0000E+00  0.0000E+00  0.0000E+00  0.0000E+00  0.0000E+00
     -1.286  0.6111E-01  0.4511E-02  0.4511E-02  0.4511E-02  0.0000E+00  0.0000E+00  0.0000E+00  0.0000E+00  0.0000E+00
     -1.167  0.6156E-01  0.4777E-02  0.4777E-02  0.4777E-02  0.0000E+00  0.0000E+00  0.0000E+00  0.0000E+00  0.0000E+00
     -1.049  0.6217E-01  0.5036E-02  0.5036E-02  0.5036E-02  0.0000E+00  0.0000E+00  0.0000E+00  0.0000E+00  0.0000E+00
     -0.931  0.6275E-01  0.5297E-02  0.5297E-02  0.5297E-02  0.0000E+00  0.0000E+00  0.0000E+00  0.0000E+00  0.0000E+00
     -0.812  0.6338E-01  0.5557E-02  0.5557E-02  0.5557E-02  0.0000E+00  0.0000E+00  0.0000E+00  0.0000E+00  0.0000E+00
     -0.694  0.6413E-01  0.5811E-02  0.5811E-02  0.5811E-02  0.0000E+00  0.0000E+00  0.0000E+00  0.0000E+00  0.0000E+00
     -0.575  0.6492E-01  0.6065E-02  0.6065E-02  0.6065E-02  0.0000E+00  0.0000E+00  0.0000E+00  0.0000E+00  0.0000E+00
     -0.457  0.6573E-01  0.6319E-02  0.6319E-02  0.6319E-02  0.0000E+00  0.0000E+00  0.0000E+00  0.0000E+00  0.0000E+00
     -0.338  0.6655E-01  0.6574E-02  0.6574E-02  0.6574E-02  0.0000E+00  0.0000E+00  0.0000E+00  0.0000E+00  0.0000E+00
     -0.220  0.6741E-01  0.6829E-02  0.6829E-02  0.6829E-02  0.0000E+00  0.0000E+00  0.0000E+00  0.0000E+00  0.0000E+00
     -0.102  0.6776E-01  0.7111E-02  0.7111E-02  0.7111E-02  0.0000E+00  0.0000E+00  0.0000E+00  0.0000E+00  0.0000E+00
      0.017  0.6814E-01  0.7393E-02  0.7393E-02  0.7393E-02  0.0000E+00  0.0000E+00  0.0000E+00  0.0000E+00  0.0000E+00
      0.135  0.6861E-01  0.7667E-02  0.7667E-02  0.7667E-02  0.0000E+00  0.0000E+00  0.0000E+00  0.0000E+00  0.0000E+00
      0.254  0.6916E-01  0.7937E-02  0.7937E-02  0.7937E-02  0.0000E+00  0.0000E+00  0.0000E+00  0.0000E+00  0.0000E+00
      0.372  0.6971E-01  0.8207E-02  0.8207E-02  0.8207E-02  0.0000E+00  0.0000E+00  0.0000E+00  0.0000E+00  0.0000E+00
      0.490  0.7027E-01  0.8476E-02  0.8476E-02  0.8476E-02  0.0000E+00  0.0000E+00  0.0000E+00  0.0000E+00  0.0000E+00
      0.609  0.7094E-01  0.8738E-02  0.8738E-02  0.8738E-02  0.0000E+00  0.0000E+00  0.0000E+00  0.0000E+00  0.0000E+00
      0.727  0.7168E-01  0.8993E-02  0.8993E-02  0.8993E-02  0.0000E+00  0.0000E+00  0.0000E+00  0.0000E+00  0.0000E+00
      0.846  0.7247E-01  0.9246E-02  0.9246E-02  0.9246E-02  0.0000E+00  0.0000E+00  0.0000E+00  0.0000E+00  0.0000E+00
      0.964  0.7331E-01  0.9494E-02  0.9494E-02  0.9494E-02  0.0000E+00  0.0000E+00  0.0000E+00  0.0000E+00  0.0000E+00
      1.083  0.7399E-01  0.9752E-02  0.9752E-02  0.9752E-02  0.0000E+00  0.0000E+00  0.0000E+00  0.0000E+00  0.0000E+00
      1.201  0.7460E-01  0.1001E-01  0.1001E-01  0.1001E-01  0.0000E+00  0.0000E+00  0.0000E+00  0.0000E+00  0.0000E+00
      1.319  0.7542E-01  0.1025E-01  0.1025E-01  0.1025E-01  0.0000E+00  0.0000E+00  0.0000E+00  0.0000E+00  0.0000E+00
      1.438  0.7645E-01  0.1049E-01  0.1049E-01  0.1049E-01  0.0000E+00  0.0000E+00  0.0000E+00  0.0000E+00  0.0000E+00
      1.556  0.7789E-01  0.1073E-01  0.1073E-01  0.1073E-01  0.0000E+00  0.0000E+00  0.0000E+00  0.0000E+00  0.0000E+00
      1.675  0.7974E-01  0.1098E-01  0.1098E-01  0.1098E-01  0.0000E+00  0.0000E+00  0.0000E+00  0.0000E+00  0.0000E+00
      1.793  0.8295E-01  0.1128E-01  0.1128E-01  0.1128E-01  0.0000E+00  0.0000E+00  0.0000E+00  0.0000E+00  0.0000E+00
      1.911  0.8614E-01  0.1159E-01  0.1159E-01  0.1159E-01  0.0000E+00  0.0000E+00  0.0000E+00  0.0000E+00  0.0000E+00
      2.030  0.8889E-01  0.1187E-01  0.1187E-01  0.1187E-01  0.0000E+00  0.0000E+00  0.0000E+00  0.0000E+00  0.0000E+00
      2.148  0.1010E+00  0.1277E-01  0.1277E-01  0.1277E-01  0.0000E+00  0.0000E+00  0.0000E+00  0.0000E+00  0.0000E+00
      2.267  0.9733E-01  0.1268E-01  0.1268E-01  0.1268E-01  0.0000E+00  0.0000E+00  0.0000E+00  0.0000E+00  0.0000E+00
      2.385  0.8758E-01  0.1220E-01  0.1220E-01  0.1220E-01  0.0000E+00  0.0000E+00  0.0000E+00  0.0000E+00  0.0000E+00
      2.504  0.8390E-01  0.1209E-01  0.1209E-01  0.1209E-01  0.0000E+00  0.0000E+00  0.0000E+00  0.0000E+00  0.0000E+00
      2.622  0.8138E-01  0.1204E-01  0.1204E-01  0.1204E-01  0.0000E+00  0.0000E+00  0.0000E+00  0.0000E+00  0.0000E+00
      2.740  0.9014E-01  0.1294E-01  0.1294E-01  0.1294E-01  0.0000E+00  0.0000E+00  0.0000E+00  0.0000E+00  0.0000E+00
      2.859  0.8016E-01  0.1231E-01  0.1231E-01  0.1231E-01  0.0000E+00  0.0000E+00  0.0000E+00  0.0000E+00  0.0000E+00
      2.977  0.7566E-01  0.1210E-01  0.1210E-01  0.1210E-01  0.0000E+00  0.0000E+00  0.0000E+00  0.0000E+00  0.0000E+00
      3.096  0.8141E-01  0.1284E-01  0.1284E-01  0.1284E-01  0.0000E+00  0.0000E+00  0.0000E+00  0.0000E+00  0.0000E+00
      3.214  0.7043E-01  0.1200E-01  0.1200E-01  0.1200E-01  0.0000E+00  0.0000E+00  0.0000E+00  0.0000E+00  0.0000E+00
      3.333  0.6787E-01  0.1271E-01  0.1271E-01  0.1271E-01  0.0000E+00  0.0000E+00  0.0000E+00  0.0000E+00  0.0000E+00
      3.451  0.6663E-01  0.1423E-01  0.1423E-01  0.1423E-01  0.0000E+00  0.0000E+00  0.0000E+00  0.0000E+00  0.0000E+00
      3.569  0.6553E-01  0.1549E-01  0.1549E-01  0.1549E-01  0.0000E+00  0.0000E+00  0.0000E+00  0.0000E+00  0.0000E+00
      3.688  0.6476E-01  0.1656E-01  0.1656E-01  0.1656E-01  0.0000E+00  0.0000E+00  0.0000E+00  0.0000E+00  0.0000E+00
      3.806  0.6648E-01  0.1862E-01  0.1862E-01  0.1862E-01  0.0000E+00  0.0000E+00  0.0000E+00  0.0000E+00  0.0000E+00
      3.925  0.7174E-01  0.2243E-01  0.2243E-01  0.2243E-01  0.0000E+00  0.0000E+00  0.0000E+00  0.0000E+00  0.0000E+00
      4.043  0.6490E-01  0.2104E-01  0.2104E-01  0.2104E-01  0.0000E+00  0.0000E+00  0.0000E+00  0.0000E+00  0.0000E+00
      4.161  0.6074E-01  0.2182E-01  0.2182E-01  0.2182E-01  0.0000E+00  0.0000E+00  0.0000E+00  0.0000E+00  0.0000E+00
      4.280  0.5881E-01  0.2280E-01  0.2280E-01  0.2280E-01  0.0000E+00  0.0000E+00  0.0000E+00  0.0000E+00  0.0000E+00
      4.398  0.5912E-01  0.2394E-01  0.2394E-01  0.2394E-01  0.0000E+00  0.0000E+00  0.0000E+00  0.0000E+00  0.0000E+00
      4.517  0.5866E-01  0.2506E-01  0.2506E-01  0.2506E-01  0.0000E+00  0.0000E+00  0.0000E+00  0.0000E+00  0.0000E+00
      4.635  0.5847E-01  0.2730E-01  0.2730E-01  0.2730E-01  0.0000E+00  0.0000E+00  0.0000E+00  0.0000E+00  0.0000E+00
      4.754  0.5549E-01  0.2674E-01  0.2674E-01  0.2674E-01  0.0000E+00  0.0000E+00  0.0000E+00  0.0000E+00  0.0000E+00
      4.872  0.5232E-01  0.2558E-01  0.2558E-01  0.2558E-01  0.0000E+00  0.0000E+00  0.0000E+00  0.0000E+00  0.0000E+00
      4.990  0.5032E-01  0.2520E-01  0.2520E-01  0.2520E-01  0.0000E+00  0.0000E+00  0.0000E+00  0.0000E+00  0.0000E+00
      5.109  0.4840E-01  0.2491E-01  0.2491E-01  0.2491E-01  0.0000E+00  0.0000E+00  0.0000E+00  0.0000E+00  0.0000E+00
      5.227  0.4500E-01  0.2331E-01  0.2331E-01  0.2331E-01  0.0000E+00  0.0000E+00  0.0000E+00  0.0000E+00  0.0000E+00
      5.346  0.4341E-01  0.2359E-01  0.2359E-01  0.2359E-01  0.0000E+00  0.0000E+00  0.0000E+00  0.0000E+00  0.0000E+00
      5.464  0.4073E-01  0.2336E-01  0.2336E-01  0.2336E-01  0.0000E+00  0.0000E+00  0.0000E+00  0.0000E+00  0.0000E+00
      5.582  0.3802E-01  0.2253E-01  0.2253E-01  0.2253E-01  0.0000E+00  0.0000E+00  0.0000E+00  0.0000E+00  0.0000E+00
      5.701  0.3825E-01  0.2251E-01  0.2251E-01  0.2251E-01  0.0000E+00  0.0000E+00  0.0000E+00  0.0000E+00  0.0000E+00
      5.819  0.4543E-01  0.2584E-01  0.2584E-01  0.2584E-01  0.0000E+00  0.0000E+00  0.0000E+00  0.0000E+00  0.0000E+00
      5.938  0.5771E-01  0.3511E-01  0.3511E-01  0.3511E-01  0.0000E+00  0.0000E+00  0.0000E+00  0.0000E+00  0.0000E+00
      6.056  0.6159E-01  0.3118E-01  0.3118E-01  0.3118E-01  0.0000E+00  0.0000E+00  0.0000E+00  0.0000E+00  0.0000E+00
      6.175  0.6602E-01  0.3050E-01  0.3050E-01  0.3050E-01  0.0000E+00  0.0000E+00  0.0000E+00  0.0000E+00  0.0000E+00
      6.293  0.6814E-01  0.2975E-01  0.2975E-01  0.2975E-01  0.0000E+00  0.0000E+00  0.0000E+00  0.0000E+00  0.0000E+00
      6.411  0.6922E-01  0.2942E-01  0.2942E-01  0.2942E-01  0.0000E+00  0.0000E+00  0.0000E+00  0.0000E+00  0.0000E+00
      6.530  0.6981E-01  0.2993E-01  0.2993E-01  0.2993E-01  0.0000E+00  0.0000E+00  0.0000E+00  0.0000E+00  0.0000E+00
      6.648  0.7079E-01  0.3283E-01  0.3283E-01  0.3283E-01  0.0000E+00  0.0000E+00  0.0000E+00  0.0000E+00  0.0000E+00
      6.767  0.6538E-01  0.2805E-01  0.2805E-01  0.2805E-01  0.0000E+00  0.0000E+00  0.0000E+00  0.0000E+00  0.0000E+00
      6.885  0.5885E-01  0.2597E-01  0.2597E-01  0.2597E-01  0.0000E+00  0.0000E+00  0.0000E+00  0.0000E+00  0.0000E+00
      7.004  0.5542E-01  0.2626E-01  0.2626E-01  0.2626E-01  0.0000E+00  0.0000E+00  0.0000E+00  0.0000E+00  0.0000E+00
      7.122  0.5310E-01  0.2532E-01  0.2532E-01  0.2532E-01  0.0000E+00  0.0000E+00  0.0000E+00  0.0000E+00  0.0000E+00
      7.240  0.5165E-01  0.2486E-01  0.2486E-01  0.2486E-01  0.0000E+00  0.0000E+00  0.0000E+00  0.0000E+00  0.0000E+00
      7.359  0.5118E-01  0.2508E-01  0.2508E-01  0.2508E-01  0.0000E+00  0.0000E+00  0.0000E+00  0.0000E+00  0.0000E+00
      7.477  0.5648E-01  0.2741E-01  0.2741E-01  0.2741E-01  0.0000E+00  0.0000E+00  0.0000E+00  0.0000E+00  0.0000E+00
      7.596  0.5794E-01  0.2938E-01  0.2938E-01  0.2938E-01  0.0000E+00  0.0000E+00  0.0000E+00  0.0000E+00  0.0000E+00
      7.714  0.6006E-01  0.3169E-01  0.3169E-01  0.3169E-01  0.0000E+00  0.0000E+00  0.0000E+00  0.0000E+00  0.0000E+00
      7.832  0.6493E-01  0.3504E-01  0.3504E-01  0.3504E-01  0.0000E+00  0.0000E+00  0.0000E+00  0.0000E+00  0.0000E+00
      7.951  0.5803E-01  0.3409E-01  0.3409E-01  0.3409E-01  0.0000E+00  0.0000E+00  0.0000E+00  0.0000E+00  0.0000E+00
      8.069  0.5591E-01  0.3201E-01  0.3201E-01  0.3201E-01  0.0000E+00  0.0000E+00  0.0000E+00  0.0000E+00  0.0000E+00
      8.188  0.5653E-01  0.3207E-01  0.3207E-01  0.3207E-01  0.0000E+00  0.0000E+00  0.0000E+00  0.0000E+00  0.0000E+00
      8.306  0.5813E-01  0.3270E-01  0.3270E-01  0.3270E-01  0.0000E+00  0.0000E+00  0.0000E+00  0.0000E+00  0.0000E+00
      8.425  0.6041E-01  0.3417E-01  0.3417E-01  0.3417E-01  0.0000E+00  0.0000E+00  0.0000E+00  0.0000E+00  0.0000E+00
      8.543  0.5578E-01  0.3264E-01  0.3264E-01  0.3264E-01  0.0000E+00  0.0000E+00  0.0000E+00  0.0000E+00  0.0000E+00
      8.661  0.5563E-01  0.3257E-01  0.3257E-01  0.3257E-01  0.0000E+00  0.0000E+00  0.0000E+00  0.0000E+00  0.0000E+00
      8.780  0.5561E-01  0.3265E-01  0.3265E-01  0.3265E-01  0.0000E+00  0.0000E+00  0.0000E+00  0.0000E+00  0.0000E+00
      8.898  0.5237E-01  0.3184E-01  0.3184E-01  0.3184E-01  0.0000E+00  0.0000E+00  0.0000E+00  0.0000E+00  0.0000E+00
      9.017  0.5224E-01  0.3214E-01  0.3214E-01  0.3214E-01  0.0000E+00  0.0000E+00  0.0000E+00  0.0000E+00  0.0000E+00
      9.135  0.5593E-01  0.3751E-01  0.3751E-01  0.3751E-01  0.0000E+00  0.0000E+00  0.0000E+00  0.0000E+00  0.0000E+00
      9.254  0.5452E-01  0.3560E-01  0.3560E-01  0.3560E-01  0.0000E+00  0.0000E+00  0.0000E+00  0.0000E+00  0.0000E+00
      9.372  0.5428E-01  0.3582E-01  0.3582E-01  0.3582E-01  0.0000E+00  0.0000E+00  0.0000E+00  0.0000E+00  0.0000E+00
      9.490  0.5538E-01  0.3710E-01  0.3710E-01  0.3710E-01  0.0000E+00  0.0000E+00  0.0000E+00  0.0000E+00  0.0000E+00
      9.609  0.5214E-01  0.3659E-01  0.3659E-01  0.3659E-01  0.0000E+00  0.0000E+00  0.0000E+00  0.0000E+00  0.0000E+00
      9.727  0.5145E-01  0.3799E-01  0.3799E-01  0.3799E-01  0.0000E+00  0.0000E+00  0.0000E+00  0.0000E+00  0.0000E+00
      9.846  0.5068E-01  0.3689E-01  0.3689E-01  0.3689E-01  0.0000E+00  0.0000E+00  0.0000E+00  0.0000E+00  0.0000E+00
      9.964  0.5030E-01  0.3753E-01  0.3753E-01  0.3753E-01  0.0000E+00  0.0000E+00  0.0000E+00  0.0000E+00  0.0000E+00
     10.082  0.5005E-01  0.3820E-01  0.3820E-01  0.3820E-01  0.0000E+00  0.0000E+00  0.0000E+00  0.0000E+00  0.0000E+00
     10.201  0.4997E-01  0.3892E-01  0.3892E-01  0.3892E-01  0.0000E+00  0.0000E+00  0.0000E+00  0.0000E+00  0.0000E+00
     10.319  0.5013E-01  0.3983E-01  0.3983E-01  0.3983E-01  0.0000E+00  0.0000E+00  0.0000E+00  0.0000E+00  0.0000E+00
     10.438  0.4959E-01  0.4060E-01  0.4060E-01  0.4060E-01  0.0000E+00  0.0000E+00  0.0000E+00  0.0000E+00  0.0000E+00
     10.556  0.4869E-01  0.4085E-01  0.4085E-01  0.4085E-01  0.0000E+00  0.0000E+00  0.0000E+00  0.0000E+00  0.0000E+00
     10.675  0.4955E-01  0.4285E-01  0.4285E-01  0.4285E-01  0.0000E+00  0.0000E+00  0.0000E+00  0.0000E+00  0.0000E+00
     10.793  0.4824E-01  0.4226E-01  0.4226E-01  0.4226E-01  0.0000E+00  0.0000E+00  0.0000E+00  0.0000E+00  0.0000E+00
     10.911  0.4727E-01  0.4247E-01  0.4247E-01  0.4247E-01  0.0000E+00  0.0000E+00  0.0000E+00  0.0000E+00  0.0000E+00
     11.030  0.4631E-01  0.4237E-01  0.4237E-01  0.4237E-01  0.0000E+00  0.0000E+00  0.0000E+00  0.0000E+00  0.0000E+00
     11.148  0.4586E-01  0.4272E-01  0.4272E-01  0.4272E-01  0.0000E+00  0.0000E+00  0.0000E+00  0.0000E+00  0.0000E+00
     11.267  0.4562E-01  0.4336E-01  0.4336E-01  0.4336E-01  0.0000E+00  0.0000E+00  0.0000E+00  0.0000E+00  0.0000E+00
     11.385  0.4566E-01  0.4485E-01  0.4485E-01  0.4485E-01  0.0000E+00  0.0000E+00  0.0000E+00  0.0000E+00  0.0000E+00
     11.503  0.4528E-01  0.4617E-01  0.4617E-01  0.4617E-01  0.0000E+00  0.0000E+00  0.0000E+00  0.0000E+00  0.0000E+00
     11.622  0.4517E-01  0.4813E-01  0.4813E-01  0.4813E-01  0.0000E+00  0.0000E+00  0.0000E+00  0.0000E+00  0.0000E+00
     11.740  0.4397E-01  0.4767E-01  0.4767E-01  0.4767E-01  0.0000E+00  0.0000E+00  0.0000E+00  0.0000E+00  0.0000E+00
     11.859  0.4240E-01  0.4818E-01  0.4818E-01  0.4818E-01  0.0000E+00  0.0000E+00  0.0000E+00  0.0000E+00  0.0000E+00
     11.977  0.4389E-01  0.5326E-01  0.5326E-01  0.5326E-01  0.0000E+00  0.0000E+00  0.0000E+00  0.0000E+00  0.0000E+00
     12.096  0.4163E-01  0.5296E-01  0.5296E-01  0.5296E-01  0.0000E+00  0.0000E+00  0.0000E+00  0.0000E+00  0.0000E+00