    1    1    1    1
  0.1482975E+02  0.2757716E-09  0.2757716E-09  0.2757716E-09  0.5000000E-15
   1.0000000000000000E-004
  CAR 
 fcc Si                                  
      4    120      6

  0.1262379E-14  0.1262379E-14  0.1262379E-14  0.2962963E-03
      1         -4.377884   1.000000
      2         20.695691   0.000000
      3         20.695872   0.000000
      4         20.695874   0.000000
      5         21.771546   0.000000
      6         21.771647   0.000000

  0.6666667E-01  0.1256048E-14  0.1256985E-14  0.2370370E-02
      1         -4.250303   1.000000
      2         18.712378   0.000000
      3         20.123520   0.000000
      4         20.123689   0.000000
      5         22.532294   0.000000
      6         22.532433   0.000000

  0.1333333E+00  0.1272810E-14  0.1278847E-14  0.2370370E-02
      1         -3.868894   1.000000
      2         15.944121   0.000000
      3         19.391877   0.000000
      4         19.392048   0.000000
      5         22.949776   0.000000
      6         23.582207   0.000000

  0.2000000E+00  0.1268234E-14  0.1266015E-14  0.2370370E-02
      1         -3.234981   1.000000
      2         13.156938   0.000000
      3         18.822129   0.000000
      4         18.822304   0.000000
      5         22.867826   0.000000
      6         23.828424   0.000000

  0.2666667E+00  0.1257067E-14  0.1253183E-14  0.2370370E-02
      1         -2.351218   1.000000
      2         10.496942   0.182865
      3         18.439843   0.000000
      4         18.440017   0.000000
      5         22.765686   0.000000
      6         22.976798   0.000000

  0.3333333E+00  0.1238960E-14  0.1254228E-14  0.2370370E-02
      1         -1.220750   1.000000
      2          8.015743   1.040965
      3         18.239235   0.000000
      4         18.239387   0.000000
      5         22.003206   0.000000
      6         22.003769   0.000000

  0.4000000E+00  0.1256242E-14  0.1255274E-14  0.2370370E-02
      1          0.147879   1.000000
      2          5.737477   1.000000
      3         18.176502   0.000000
      4         18.176636   0.000000
      5         21.229344   0.000000
      6         21.229905   0.000000

  0.4666667E+00  0.1238136E-14  0.1256319E-14  0.2370370E-02
      1          1.717663   1.000000
      2          3.710532   1.000000
      3         18.186288   0.000000
      4         18.186407   0.000000
      5         20.792525   0.000000
      6         20.793094   0.000000

  0.6666667E-01  0.6666667E-01  0.1262168E-14  0.1777778E-02
      1         -4.207796   1.000000
      2         19.168829   0.000000
      3         19.168941   0.000000
      4         20.294002   0.000000
      5         20.889659   0.000000
      6         23.560632   0.000000

  0.1333333E+00  0.6666667E-01  0.1259076E-14  0.7111111E-02
      1         -3.911181   1.000000
      2         16.934064   0.000000
      3         18.345767   0.000000
      4         19.840515   0.000000
      5         21.284057   0.000000
      6         24.250142   0.000000

  0.2000000E+00  0.6666667E-01  0.1280938E-14  0.7111111E-02
      1         -3.361467   1.000000
      2         14.163675   0.000000
      3         17.718096   0.000000
      4         19.220387   0.000000
      5         21.975078   0.000000
      6         24.073388   0.000000

  0.2666667E+00  0.6666667E-01  0.1281984E-14  0.7111111E-02
      1         -2.561039   1.000000
      2         11.464879  -0.062139
      3         17.297508   0.000000
      4         18.699264   0.000000
      5         21.485115   0.000000
      6         23.837274   0.000000

  0.3333333E+00  0.6666667E-01  0.1255274E-14  0.7111111E-02
      1         -1.513019   1.000000
      2          8.924192   0.964357
      3         17.089413   0.000000
      4         18.249474   0.000000
      5         20.667156   0.000000
      6         23.674788   0.000000

  0.4000000E+00  0.6666667E-01  0.1256319E-14  0.7111111E-02
      1         -0.222529   1.000000
      2          6.578234   1.000000
      3         17.087708   0.000000
      4         17.780779   0.000000
      5         20.145989   0.000000
      6         22.732231   0.000000

  0.4666667E+00  0.6666667E-01  0.1257365E-14  0.7111111E-02
      1          1.290812   1.000000
      2          4.456771   1.000000
      3         17.267450   0.000000
      4         17.281234   0.000000
      5         20.089458   0.000000
      6         21.967084   0.000000

 -0.4666667E+00  0.6666667E-01  0.1270484E-14  0.7111111E-02
      1          2.316399   1.000000
      2          3.278264   1.000000
      3         16.806248   0.000000
      4         17.647273   0.000000
      5         20.406890   0.000000
      6         21.458334   0.000000

 -0.4000000E+00  0.6666667E-01  0.1243774E-14  0.7111111E-02
      1          0.764347   1.000000
      2          5.135327   1.000000
      3         16.484503   0.000000
      4         18.150023   0.000000
      5         21.039938   0.000000
      6         21.268053   0.000000

 -0.3333333E+00  0.6666667E-01  0.1244819E-14  0.7111111E-02
      1         -0.679323   1.000000
      2          7.336458   1.000000
      3         16.346264   0.000000
      4         18.704734   0.000000
      5         21.432513   0.000000
      6         21.911693   0.000000

 -0.2666667E+00  0.6666667E-01  0.1245865E-14  0.7111111E-02
      1         -1.889816   1.000000
      2          9.750416   0.564649
      3         16.415098   0.000000
      4         19.247226   0.000000
      5         21.986124   0.000000
      6         22.971773   0.000000

 -0.2000000E+00  0.6666667E-01  0.1246910E-14  0.7111111E-02
      1         -2.855549   1.000000
      2         12.348943  -0.002340
      3         16.692997   0.000000
      4         19.789099   0.000000
      5         22.765380   0.000000
      6         23.465239   0.000000

 -0.1333333E+00  0.6666667E-01  0.1261833E-14  0.7111111E-02
      1         -3.572694   1.000000
      2         15.090182   0.000000
      3         17.184341   0.000000
      4         20.366819   0.000000
      5         22.858345   0.000000
      6         23.424300   0.000000

 -0.6666667E-01  0.6666667E-01  0.1262879E-14  0.3555556E-02
      1         -4.038289   1.000000
      2         17.768156   0.000000
      3         17.953554   0.000000
      4         20.767810   0.000000
      5         22.126107   0.000000
      6         23.071486   0.000000

  0.1333333E+00  0.1333333E+00  0.1261957E-14  0.1777778E-02
      1         -3.699425   1.000000
      2         17.450016   0.000000
      3         17.450114   0.000000
      4         19.223927   0.000000
      5         19.254276   0.000000
      6         23.608114   0.000000

  0.2000000E+00  0.1333333E+00  0.1261167E-14  0.7111111E-02
      1         -3.234615   1.000000
      2         15.312202   0.000000
      3         16.751449   0.000000
      4         18.500127   0.000000
      5         19.678221   0.000000
      6         22.253645   0.000000

  0.2666667E+00  0.1333333E+00  0.1283029E-14  0.7111111E-02
      1         -2.518551   1.000000
      2         12.634335   0.000000
      3         16.266600   0.000000
      4         17.762116   0.000000
      5         19.658125   0.000000
      6         22.528111   0.000000

  0.3333333E+00  0.1333333E+00  0.1242441E-14  0.7111111E-02
      1         -1.553816   1.000000
      2         10.055192   0.404756
      3         15.999404   0.000000
      4         16.951847   0.000000
      5         19.090254   0.000000
      6         23.959522   0.000000

  0.4000000E+00  0.1333333E+00  0.1257365E-14  0.7111111E-02
      1         -0.345194   1.000000
      2          7.650886   1.003647
      3         15.944822   0.000000
      4         16.078728   0.000000
      5         18.815410   0.000000
      6         24.695001   0.000000

  0.4666667E+00  0.1333333E+00  0.1258410E-14  0.7111111E-02
      1          1.096264   1.000000
      2          5.455516   1.000000
      3         15.270442   0.000000
      4         16.109307   0.000000
      5         18.900869   0.000000
      6         23.865592   0.000000

 -0.4666667E+00  0.1333333E+00  0.1327040E-14  0.7111111E-02
      1          2.649592   1.000000
      2          3.598501   1.000000
      3         14.614554   0.000000
      4         16.482942   0.000000
      5         19.279068   0.000000
      6         23.234336   0.000000

 -0.4000000E+00  0.1333333E+00  0.1328086E-14  0.7111111E-02
      1          1.621622   1.000000
      2          4.777657   1.000000
      3         14.153126   0.000000
      4         17.053603   0.000000
      5         19.909851   0.000000
      6         22.806934   0.000000

 -0.3333333E+00  0.1333333E+00  0.1245865E-14  0.7111111E-02
      1          0.110272   1.000000
      2          6.892946   1.000000
      3         13.906043   0.000000
      4         17.803996   0.000000
      5         20.771639   0.000000
      6         22.645810   0.000000

 -0.2666667E+00  0.1333333E+00  0.1246910E-14  0.7111111E-02
      1         -1.177965   1.000000
      2          9.228542   0.841794
      3         13.881561   0.000000
      4         18.695339   0.000000
      5         21.857374   0.000000
      6         22.766108   0.000000

 -0.2000000E+00  0.1333333E+00  0.1247955E-14  0.7111111E-02
      1         -2.224764   1.000000
      2         11.741773  -0.045005
      3         14.093720   0.000000
      4         19.641674   0.000000
      5         23.093885   0.000000
      6         23.133761   0.000000

 -0.1333333E+00  0.1333333E+00  0.1249001E-14  0.3555556E-02
      1         -3.023978   1.000000
      2         14.190912   0.000000
      3         14.735900   0.000000
      4         20.426369   0.000000
      5         23.107559   0.000000
      6         24.159745   0.000000

  0.2000000E+00  0.2000000E+00  0.1261746E-14  0.1777778E-02
      1         -2.854897   1.000000
      2         15.982830   0.000000
      3         15.982921   0.000000
      4         17.506294   0.000000
      5         17.697076   0.000000
      6         20.577510   0.000000

  0.2666667E+00  0.2000000E+00  0.1249380E-14  0.7111111E-02
      1         -2.223853   1.000000
      2         13.937762   0.000000
      3         15.427133   0.000000
      4         16.445703   0.000000
      5         17.916736   0.000000
      6         20.089366   0.000000

  0.3333333E+00  0.2000000E+00  0.1257365E-14  0.7111111E-02
      1         -1.343667   1.000000
      2         11.385720  -0.060402
      3         15.086393   0.000000
      4         15.270002   0.000000
      5         17.808000   0.000000
      6         21.307750   0.000000

  0.4000000E+00  0.2000000E+00  0.1286166E-14  0.7111111E-02
      1         -0.218165   1.000000
      2          8.945024   0.961636
      3         14.141296   0.000000
      4         14.969913   0.000000
      5         17.679639   0.000000
      6         23.187950   0.000000

  0.4666667E+00  0.2000000E+00  0.1259456E-14  0.7111111E-02
      1          1.143855   1.000000
      2          6.689389   1.000000
      3         13.161142   0.000000
      4         15.071762   0.000000
      5         17.769103   0.000000
      6         25.159899   0.000000

 -0.4666667E+00  0.2000000E+00  0.1272575E-14  0.7111111E-02
      1          2.709187   1.000000
      2          4.673508   1.000000
      3         12.378963  -0.006151
      4         15.391342   0.000000
      5         18.115510   0.000000
      6         25.338232   0.000000

 -0.4000000E+00  0.2000000E+00  0.1329131E-14  0.7111111E-02
      1          2.708557   1.000000
      2          4.672478   1.000000
      3         11.813665  -0.040926
      4         15.923626   0.000000
      5         18.703082   0.000000
      6         24.837964   0.000000

 -0.3333333E+00  0.2000000E+00  0.1274666E-14  0.7111111E-02
      1          1.142837   1.000000
      2          6.683418   1.000000
      3         11.479135  -0.053430
      4         16.659660   0.000000
      5         19.520634   0.000000
      6         24.558459   0.000000

 -0.2666667E+00  0.2000000E+00  0.1247955E-14  0.7111111E-02
      1         -0.219480   1.000000
      2          8.918098   1.023012
      3         11.393310  -0.019138
      4         17.578329   0.000000
      5         20.558228   0.000000
      6         24.491398   0.000000

 -0.2000000E+00  0.2000000E+00  0.1249001E-14  0.3555556E-02
      1         -1.344743   1.000000
      2         11.067916  -0.066697
      3         11.816199   0.000000
      4         18.631825   0.000000
      5         21.773414   0.000000
      6         24.659008   0.000000

  0.2666667E+00  0.2666667E+00  0.1261536E-14  0.1777778E-02
      1         -1.677482   1.000000
      2         14.796020   0.000000
      3         14.796127   0.000000
      4         14.894720   0.000000
      5         16.377712   0.000000
      6         18.686464   0.000000

  0.3333333E+00  0.2666667E+00  0.1251471E-14  0.7111111E-02
      1         -0.883048   1.000000
      2         12.793652   0.000000
      3         13.609011   0.000000
      4         14.386508   0.000000
      5         16.656053   0.000000
      6         18.839330   0.000000

  0.4000000E+00  0.2666667E+00  0.1287211E-14  0.7111111E-02
      1          0.156967   1.000000
      2         10.418714   0.209410
      3         12.287398   0.000000
      4         14.198030   0.000000
      5         16.729218   0.000000
      6         20.428000   0.000000

  0.4666667E+00  0.2666667E+00  0.1274379E-14  0.7111111E-02
      1          1.436381   1.000000
      2          8.136298   1.044968
      3         11.171951  -0.041982
      4         14.230620   0.000000
      5         16.821198   0.000000
      6         22.530171   0.000000

 -0.4666667E+00  0.2666667E+00  0.1329131E-14  0.7111111E-02
      1          2.938098   1.000000
      2          6.047567   1.000000
      3         10.279959   0.270356
      4         14.483862   0.000000
      5         17.116629   0.000000
      6         24.837133   0.000000

 -0.4000000E+00  0.2666667E+00  0.1330177E-14  0.7111111E-02
      1          3.971394   1.000000
      2          4.861957   1.000000
      3          9.623004   0.640269
      4         14.955188   0.000000
      5         17.646393   0.000000
      6         27.089290   0.000000

 -0.3333333E+00  0.2666667E+00  0.1331222E-14  0.7111111E-02
      1          2.412700   1.000000
      2          6.692338   1.000000
      3          9.221979   0.852521
      4         15.638685   0.000000
      5         18.406059   0.000000
      6         26.700263   0.000000

 -0.2666667E+00  0.2666667E+00  0.1332268E-14  0.3555556E-02
      1          0.980545   1.000000
      2          8.531358   1.000000
      3          9.364576   0.623855
      4         16.523645   0.000000
      5         19.385720   0.000000
      6         26.307544   0.000000

  0.3333333E+00  0.3333333E+00  0.1261325E-14  0.1777778E-02
      1         -0.174605   1.000000
      2         11.887375  -0.032917
      3         13.903935   0.000000
      4         13.904036   0.000000
      5         15.384331   0.000000
      6         17.583904   0.000000

  0.4000000E+00  0.3333333E+00  0.1253562E-14  0.7111111E-02
      1          0.779141   1.000000
      2         10.456344   0.191052
      3         12.165913   0.000000
      4         13.642533   0.000000
      5         15.813963   0.000000
      6         18.029609   0.000000

  0.4666667E+00  0.3333333E+00  0.1289302E-14  0.7111111E-02
      1          1.972520   1.000000
      2          9.155095   1.009981
      3          9.994261   0.243149
      4         13.603160   0.000000
      5         16.053838   0.000000
      6         19.840943   0.000000

 -0.4666667E+00  0.3333333E+00  0.1274666E-14  0.7111111E-02
      1          3.392683   1.000000
      2          7.547013   1.000000
      3          8.481523   1.078664
      4         13.785399   0.000000
      5         16.323424   0.000000
      6         22.125671   0.000000

 -0.4000000E+00  0.3333333E+00  0.1331222E-14  0.7111111E-02
      1          4.945197   1.000000
      2          5.753963   1.000000
      3          7.681801   1.011305
      4         14.188637   0.000000
      5         16.794406   0.000000
      6         24.635574   0.000000

 -0.3333333E+00  0.3333333E+00  0.1276756E-14  0.3555556E-02
      1          3.905245   1.000000
      2          6.616923   1.000000
      3          7.492777   1.000000
      4         14.809005   0.000000
      5         17.489318   0.000000
      6         27.148008   0.000000

  0.4000000E+00  0.4000000E+00  0.1261114E-14  0.1777778E-02
      1          1.645805   1.000000
      2          8.963380   0.951541
      3         13.308115   0.000000
      4         13.308213   0.000000
      5         14.718108   0.000000
      6         16.917762   0.000000

  0.4666667E+00  0.4000000E+00  0.1255653E-14  0.7111111E-02
      1          2.748545   1.000000
      2          7.661149   1.014833
      3         11.677668  -0.073174
      4         13.195286   0.000000
      5         15.317931   0.000000
      6         17.560001   0.000000

 -0.4666667E+00  0.4000000E+00  0.1331222E-14  0.7111111E-02
      1          4.069244   1.000000
      2          6.593750   1.000000
      3          9.572371   0.733284
      4         13.305256   0.000000
      5         15.721379   0.000000
      6         19.544329   0.000000

 -0.4000000E+00  0.4000000E+00  0.1332268E-14  0.3555556E-02
      1          5.336367   1.000000
      2          5.984515   1.000000
      3          7.656605   1.000000
      4         13.636932   0.000000
      5         16.163490   0.000000
      6         21.999368   0.000000

  0.4666667E+00  0.4666667E+00  0.1260903E-14  0.1777778E-02
      1          3.748210   1.000000
      2          6.291780   1.000000
      3         13.009079   0.000000
      4         13.009176   0.000000
      5         14.382325   0.000000
      6         16.593626   0.000000

 -0.4666667E+00  0.4666667E+00  0.1332268E-14  0.3555556E-02
      1          4.695453   1.000000
      2          5.430883   1.000000
      3         11.518560  -0.070553
      4         13.045812   0.000000
      5         15.152719   0.000000
      6         17.406222   0.000000

  0.2000000E+00  0.1333333E+00  0.6666667E-01  0.7111111E-02
      1         -3.530415   1.000000
      2         16.004317   0.000000
      3         16.336650   0.000000
      4         20.072348   0.000000
      5         20.948763   0.000000
      6         23.910864   0.000000

  0.2666667E+00  0.1333333E+00  0.6666667E-01  0.1422222E-01
      1         -2.897489   1.000000
      2         13.425783   0.000000
      3         15.638686   0.000000
      4         19.475351   0.000000
      5         21.372028   0.000000
      6         23.390541   0.000000

  0.3333333E+00  0.1333333E+00  0.6666667E-01  0.1422222E-01
      1         -2.014845   1.000000
      2         10.795847   0.048141
      3         15.280937   0.000000
      4         18.637702   0.000000
      5         20.944270   0.000000
      6         23.899493   0.000000

  0.4000000E+00  0.1333333E+00  0.6666667E-01  0.1422222E-01
      1         -0.886312   1.000000
      2          8.326218   1.072799
      3         15.148732   0.000000
      4         17.743531   0.000000
      5         20.607818   0.000000
      6         23.201884   0.000000

  0.4666667E+00  0.1333333E+00  0.6666667E-01  0.1422222E-01
      1          0.480490   1.000000
      2          6.055821   1.000000
      3         15.223317   0.000000
      4         16.919041   0.000000
      5         20.541296   0.000000
      6         22.352066   0.000000

 -0.4666667E+00  0.1333333E+00  0.6666667E-01  0.1422222E-01
      1          2.048823   1.000000
      2          4.032424   1.000000
      3         15.443297   0.000000
      4         16.305520   0.000000
      5         20.646117   0.000000
      6         21.778318   0.000000

  0.2666667E+00  0.2000000E+00  0.6666667E-01  0.7111111E-02
      1         -2.686635   1.000000
      2         14.470768   0.000000
      3         14.883406   0.000000
      4         18.155270   0.000000
      5         19.485678   0.000000
      6         21.310150   0.000000

  0.3333333E+00  0.2000000E+00  0.6666667E-01  0.1422222E-01
      1         -1.888411   1.000000
      2         12.033973  -0.017860
      3         14.289952   0.000000
      4         17.056030   0.000000
      5         19.690916   0.000000
      6         21.936424   0.000000

  0.4000000E+00  0.2000000E+00  0.6666667E-01  0.1422222E-01
      1         -0.843218   1.000000
      2          9.535924   0.688272
      3         14.064614   0.000000
      4         15.916563   0.000000
      5         19.529244   0.000000
      6         23.548634   0.000000

  0.4666667E+00  0.2000000E+00  0.6666667E-01  0.1422222E-01
      1          0.442750   1.000000
      2          7.208519   1.000000
      3         14.004580   0.000000
      4         14.972834   0.000000
      5         19.536697   0.000000
      6         24.131612   0.000000

 -0.4666667E+00  0.2000000E+00  0.6666667E-01  0.1422222E-01
      1          1.952479   1.000000
      2          5.098232   1.000000
      3         13.754843   0.000000
      4         14.635352   0.000000
      5         19.771530   0.000000
      6         23.495737   0.000000

 -0.4000000E+00  0.2000000E+00  0.6666667E-01  0.1422222E-01
      1          2.981632   1.000000
      2          3.917578   1.000000
      3         13.234441   0.000000
      4         14.997789   0.000000
      5         20.219992   0.000000
      6         22.944369   0.000000

 -0.3333333E+00  0.2000000E+00  0.6666667E-01  0.1422222E-01
      1          1.426652   1.000000
      2          5.772914   1.000000
      3         12.850542   0.000000
      4         15.663495   0.000000
      5         20.847892   0.000000
      6         22.638188   0.000000

 -0.2666667E+00  0.2000000E+00  0.6666667E-01  0.1422222E-01
      1         -0.012711   1.000000
      2          7.957664   1.026286
      3         12.679256   0.000000
      4         16.546548   0.000000
      5         21.541244   0.000000
      6         22.664277   0.000000

 -0.2000000E+00  0.2000000E+00  0.6666667E-01  0.1422222E-01
      1         -1.219208   1.000000
      2         10.335070   0.264580
      3         12.746812   0.000000
      4         17.606792   0.000000
      5         22.069347   0.000000
      6         23.099408   0.000000

 -0.1333333E+00  0.2000000E+00  0.6666667E-01  0.7111111E-02
      1         -2.182356   1.000000
      2         12.637171   0.000000
      3         13.281878   0.000000
      4         18.743769   0.000000
      5         22.168661   0.000000
      6         22.821554   0.000000

  0.3333333E+00  0.2666667E+00  0.6666667E-01  0.7111111E-02
      1         -1.510464   1.000000
      2         13.234109   0.000000
      3         13.637170   0.000000
      4         15.335796   0.000000
      5         18.251658   0.000000
      6         19.763292   0.000000

  0.4000000E+00  0.2666667E+00  0.6666667E-01  0.1422222E-01
      1         -0.550061   1.000000
      2         10.931293   0.012893
      3         13.117136   0.000000
      4         14.114772   0.000000
      5         18.545053   0.000000
      6         20.923287   0.000000

  0.4666667E+00  0.2666667E+00  0.6666667E-01  0.1422222E-01
      1          0.652512   1.000000
      2          8.578345   1.049943
      3         12.571931  -0.000591
      4         13.446003   0.000000
      5         18.584584   0.000000
      6         22.878719   0.000000

 -0.4666667E+00  0.2666667E+00  0.6666667E-01  0.1422222E-01
      1          2.086774   1.000000
      2          6.406341   1.000000
      3         11.736498  -0.044560
      4         13.508233   0.000000
      5         18.785885   0.000000
      6         24.822383   0.000000

 -0.4000000E+00  0.2666667E+00  0.6666667E-01  0.1422222E-01
      1          3.642684   1.000000
      2          4.551806   1.000000
      3         11.032930  -0.013559
      4         13.892894   0.000000
      5         19.207915   0.000000
      6         25.002731   0.000000

 -0.3333333E+00  0.2666667E+00  0.6666667E-01  0.1422222E-01
      1          2.609456   1.000000
      2          5.728864   1.000000
      3         10.545631   0.132021
      4         14.518254   0.000000
      5         19.841641   0.000000
      6         24.618704   0.000000

 -0.2666667E+00  0.2666667E+00  0.6666667E-01  0.1422222E-01
      1          1.104018   1.000000
      2          7.805618   1.000000
      3         10.307012   0.146830
      4         15.366021   0.000000
      5         20.678982   0.000000
      6         24.374434   0.000000

 -0.2000000E+00  0.2666667E+00  0.6666667E-01  0.7111111E-02
      1         -0.177346   1.000000
      2          9.802611   0.784536
      3         10.593086  -0.004491
      4         16.414271   0.000000
      5         21.673194   0.000000
      6         24.030050   0.000000

  0.4000000E+00  0.3333333E+00  0.6666667E-01  0.7111111E-02
      1         -0.008938   1.000000
      2         11.909921  -0.050307
      3         12.298875   0.000000
      4         13.071411   0.000000
      5         17.295180   0.000000
      6         18.785956   0.000000

  0.4666667E+00  0.3333333E+00  0.6666667E-01  0.1422222E-01
      1          1.108712   1.000000
      2         10.058615   0.556115
      3         10.894898  -0.062141
      4         12.618471   0.000000
      5         17.743162   0.000000
      6         20.200758   0.000000

 -0.4666667E+00  0.3333333E+00  0.6666667E-01  0.1422222E-01
      1          2.460437   1.000000
      2          7.910827   1.001614
      3          9.821525   0.504605
      4         12.683390   0.000000
      5         17.954464   0.000000
      6         22.359711   0.000000

 -0.4000000E+00  0.3333333E+00  0.6666667E-01  0.1422222E-01
      1          4.015565   1.000000
      2          5.929055   1.000000
      3          8.998818   0.953993
      4         13.011579   0.000000
      5         18.332632   0.000000
      6         24.735543   0.000000

 -0.3333333E+00  0.3333333E+00  0.6666667E-01  0.1422222E-01
      1          4.014621   1.000000
      2          5.910123   1.000000
      3          8.435424   1.056722
      4         13.575649   0.000000
      5         18.920082   0.000000
      6         26.576032   0.000000

 -0.2666667E+00  0.3333333E+00  0.6666667E-01  0.7111111E-02
      1          2.456097   1.000000
      2          7.575152   1.000000
      3          8.420766   1.126216
      4         14.363914   0.000000
      5         19.710448   0.000000
      6         26.521521   0.000000

  0.4666667E+00  0.4000000E+00  0.6666667E-01  0.7111111E-02
      1          1.809105   1.000000
      2          9.102207   0.961562
      3         11.673559  -0.056470
      4         12.325658   0.000000
      5         16.660046   0.000000
      6         18.166622   0.000000

 -0.4666667E+00  0.4000000E+00  0.6666667E-01  0.1422222E-01
      1          3.072433   1.000000
      2          7.942572   1.002176
      3          9.757388   0.653192
      4         12.114122   0.000000
      5         17.265949   0.000000
      6         19.760510   0.000000

 -0.4000000E+00  0.4000000E+00  0.6666667E-01  0.1422222E-01
      1          4.544769   1.000000
      2          6.934645   1.000000
      3          7.836734   1.000000
      4         12.360560   0.000000
      5         17.644045   0.000000
      6         22.097348   0.000000

 -0.3333333E+00  0.4000000E+00  0.6666667E-01  0.7111111E-02
      1          5.569549   1.000000
      2          5.976854   1.000000
      3          6.956785   1.000000
      4         12.852846   0.000000
      5         18.181460   0.000000
      6         24.647818   0.000000

 -0.4666667E+00  0.4666667E+00  0.6666667E-01  0.7111111E-02
      1          3.909195   1.000000
      2          6.446386   1.000000
      3         11.359648  -0.153064
      4         12.001686   0.000000
      5         16.341934   0.000000
      6         17.863742   0.000000

 -0.4000000E+00  0.4666667E+00  0.6666667E-01  0.7111111E-02
      1          5.015790   1.000000
      2          5.737584   1.000000
      3          9.579218   0.806339
      4         11.954201   0.000000
      5         17.109618   0.000000
      6         19.617906   0.000000

  0.4000000E+00  0.2666667E+00  0.1333333E+00  0.7111111E-02
      1         -1.009600   1.000000
      2         11.381338  -0.117837
      3         12.062186   0.000000
      4         15.800962   0.000000
      5         21.006469   0.000000
      6         21.820902   0.000000

  0.4666667E+00  0.2666667E+00  0.1333333E+00  0.1422222E-01
      1          0.113615   1.000000
      2          9.227538   0.930934
      3         11.655356  -0.006870
      4         14.608673   0.000000
      5         21.229319   0.000000
      6         23.121782   0.000000

 -0.4666667E+00  0.2666667E+00  0.1333333E+00  0.1422222E-01
      1          1.473544   1.000000
      2          6.999046   1.000000
      3         11.718716  -0.045380
      4         13.622896   0.000000
      5         21.291093   0.000000
      6         23.247636   0.000000

 -0.4000000E+00  0.2666667E+00  0.1333333E+00  0.1422222E-01
      1          3.037564   1.000000
      2          4.991405   1.000000
      3         11.946322  -0.035124
      4         12.934670   0.000000
      5         21.422043   0.000000
      6         22.787599   0.000000

  0.4666667E+00  0.3333333E+00  0.1333333E+00  0.7111111E-02
      1          0.487947   1.000000
      2         10.433528   0.341286
      3         11.052307  -0.002510
      4         12.783670   0.000000
      5         20.082842   0.000000