       N       E                     dE             d eps       ncg     rms          rms(c)
DAV:   1    -0.323716750042E+01   -0.32372E+01   -0.11684E+03  1602   0.282E+02
DAV:   2    -0.487640203976E+01   -0.16392E+01   -0.16120E+01  2052   0.267E+01
DAV:   3    -0.488601780350E+01   -0.96158E-02   -0.96280E-02  1788   0.212E+00
DAV:   4    -0.488602554406E+01   -0.77406E-05   -0.77571E-05  2016   0.590E-02
DAV:   5    -0.488602554964E+01   -0.55861E-08   -0.65001E-08  1662   0.109E-03    0.295E+00
DAV:   6    -0.487333776615E+01    0.12688E-01   -0.40004E-03  1542   0.365E-01    0.163E+00
DAV:   7    -0.486606691145E+01    0.72709E-02   -0.79165E-03  1518   0.511E-01    0.134E-01
DAV:   8    -0.486603531404E+01    0.31597E-04   -0.24868E-05  1308   0.492E-02
   1 F= -.48660353E+01 E0= -.48660353E+01  d E =0.000000E+00
