 vasp.6.3.0 20Jan22 (build Oct  7 2022 22:46:23) complex                         
 executed on             LinuxGNU date 2025.04.17  10:43:13
 running on    2 total cores
 distrk:  each k-point on    2 cores,    1 groups
 distr:  one band on NCORE=   1 cores,    2 groups


--------------------------------------------------------------------------------------------------------


 INCAR:
   SYSTEM = fcc Si
   ENCUT = 240
   ISMEAR = -5
   LORBIT = 11

 POTCAR:    PAW_PBE Si 05Jan2001                  
 POTCAR:    PAW_PBE Si 05Jan2001                  
   SHA256 =  79d9987ad8750f624c4d6acb2a16d13abf6a777132adc04dc6c8399be72b42bb Si/POTCAR             
   COPYR  = (c) Copyright 05Jan2001 Georg Kresse                                                    
   COPYR  = This file is part of the software VASP. Any use, copying, and all other rights are regul
   COPYR  = If you do not have a valid VASP license, you may not use, copy or distribute this file. 
   VRHFIN =Si: s2p2                                                                                 
   LEXCH  = PE                                                                                      
   EATOM  =   103.0669 eV,    7.5752 Ry                                                             
                                                                                                    
   TITEL  = PAW_PBE Si 05Jan2001                                                                    
   LULTRA =        F    use ultrasoft PP ?                                                          
   IUNSCR =        1    unscreen: 0-lin 1-nonlin 2-no                                               
   RPACOR =    1.500    partial core radius                                                         
   POMASS =   28.085; ZVAL   =    4.000    mass and valenz                                          
   RCORE  =    1.900    outmost cutoff radius                                                       
   RWIGS  =    2.480; RWIGS  =    1.312    wigner-seitz radius (au A)                               
   ENMAX  =  245.345; ENMIN  =  184.009 eV                                                          
   ICORE  =        2    local potential                                                             
   LCOR   =        T    correct aug charges                                                         
   LPAW   =        T    paw PP                                                                      
   EAUG   =  322.069                                                                                
   DEXC   =    0.000                                                                                
   RMAX   =    1.950    core radius for proj-oper                                                   
   RAUG   =    1.300    factor for augmentation sphere                                              
   RDEP   =    1.993    radius for radial grids                                                     
   RDEPT  =    1.837    core radius for aug-charge                                                  
                                                                                                    
   Atomic configuration                                                                             
    6 entries                                                                                       
     n  l   j            E        occ.                                                              
     1  0  0.50     -1785.8828   2.0000                                                             
     2  0  0.50      -139.4969   2.0000                                                             
     2  1  1.50       -95.5546   6.0000                                                             
     3  0  0.50       -10.8127   2.0000                                                             
     3  1  0.50        -4.0811   2.0000                                                             
     3  2  1.50        -4.0817   0.0000                                                             
   Description                                                                                      
     l       E           TYP  RCUT    TYP  RCUT                                                     
     0    -10.8127223     23  1.900                                                                 
     0     -7.6451159     23  1.900                                                                 
     1     -4.0811372     23  1.900                                                                 
     1      2.4879257     23  1.900                                                                 
     2     -4.0817478      7  1.900                                                                 
  local pseudopotential read in
  partial core-charges read in
  partial kinetic energy density read in
  atomic valenz-charges read in
  non local Contribution for L=           0  read in
    real space projection operators read in
  non local Contribution for L=           0  read in
    real space projection operators read in
  non local Contribution for L=           1  read in
    real space projection operators read in
  non local Contribution for L=           1  read in
    real space projection operators read in
    PAW grid and wavefunctions read in

   number of l-projection  operators is LMAX  =           4
   number of lm-projection operators is LMMAX =           8

  PAW_PBE Si 05Jan2001                  :
 energy of atom  1       EATOM= -103.0669
 kinetic energy error for atom=    0.0061 (will be added to EATOM!!)


 POSCAR: fcc Si
  positions in cartesian coordinates
  No initial velocities read in
 exchange correlation table for  LEXCH =        8
   RHO(1)=    0.500       N(1)  =     2000
   RHO(2)=  100.500       N(2)  =     4000



--------------------------------------------------------------------------------------------------------


 ion  position               nearest neighbor table
   1  0.000  0.000  0.000-

  LATTYP: Found a face centered cubic cell.
 ALAT       =     3.9000000000
  
  Lattice vectors:
  
 A1 = (   0.0000000000,   1.9500000000,   1.9500000000)
 A2 = (   1.9500000000,   0.0000000000,   1.9500000000)
 A3 = (   1.9500000000,   1.9500000000,   0.0000000000)


Analysis of symmetry for initial positions (statically):
=====================================================================
 Subroutine PRICEL returns:
 Original cell was already a primitive cell.
 

 Routine SETGRP: Setting up the symmetry group for a 
 face centered cubic supercell.


 Subroutine GETGRP returns: Found 48 space group operations
 (whereof 48 operations were pure point group operations)
 out of a pool of 48 trial point group operations.


The static configuration has the point symmetry O_h .


Analysis of symmetry for dynamics (positions and initial velocities):
=====================================================================
 Subroutine PRICEL returns:
 Original cell was already a primitive cell.
 

 Routine SETGRP: Setting up the symmetry group for a 
 face centered cubic supercell.


 Subroutine GETGRP returns: Found 48 space group operations
 (whereof 48 operations were pure point group operations)
 out of a pool of 48 trial point group operations.


The dynamic configuration has the point symmetry O_h .


 Subroutine INISYM returns: Found 48 space group operations
 (whereof 48 operations are pure point group operations),
 and found     1 'primitive' translations


----------------------------------------------------------------------------------------

                                     Primitive cell                                     

  volume of cell :      14.8297

  direct lattice vectors                    reciprocal lattice vectors
     0.000000000  1.950000000  1.950000000    -0.256410256  0.256410256  0.256410256
     1.950000000  0.000000000  1.950000000     0.256410256 -0.256410256  0.256410256
     1.950000000  1.950000000  0.000000000     0.256410256  0.256410256 -0.256410256

  length of vectors
     2.757716447  2.757716447  2.757716447     0.444115592  0.444115592  0.444115592

  position of ions in fractional coordinates (direct lattice)
     0.000000000  0.000000000  0.000000000

  ion indices of the primitive-cell ions
   primitive index   ion index
                 1           1

----------------------------------------------------------------------------------------



 KPOINTS: K-Points                                

Automatic generation of k-mesh.
 Grid dimensions read from file:
 generate k-points for:   15   15   15

 Generating k-lattice:

  Cartesian coordinates                     Fractional coordinates (reciprocal lattice)
    -0.017094017  0.017094017  0.017094017     0.066666667  0.000000000 -0.000000000
     0.017094017 -0.017094017  0.017094017     0.000000000  0.066666667  0.000000000
     0.017094017  0.017094017 -0.017094017    -0.000000000 -0.000000000  0.066666667

  Length of vectors
     0.029607706  0.029607706  0.029607706

  Shift w.r.t. Gamma in fractional coordinates (k-lattice)
     0.000000000  0.000000000  0.000000000

 TETIRR: Found    484 inequivalent tetrahedra from    20250
 
 Subroutine IBZKPT returns following result:
 ===========================================
 
 Found    120 irreducible k-points:
 
 Following reciprocal coordinates:
            Coordinates               Weight
  0.000000  0.000000  0.000000      1.000000
  0.066667  0.000000  0.000000      8.000000
  0.133333  0.000000  0.000000      8.000000
  0.200000  0.000000  0.000000      8.000000
  0.266667  0.000000  0.000000      8.000000
  0.333333  0.000000  0.000000      8.000000
  0.400000  0.000000  0.000000      8.000000
  0.466667  0.000000  0.000000      8.000000
  0.066667  0.066667  0.000000      6.000000
  0.133333  0.066667  0.000000     24.000000
  0.200000  0.066667  0.000000     24.000000
  0.266667  0.066667  0.000000     24.000000
  0.333333  0.066667  0.000000     24.000000
  0.400000  0.066667  0.000000     24.000000
  0.466667  0.066667  0.000000     24.000000
 -0.466667  0.066667  0.000000     24.000000
 -0.400000  0.066667  0.000000     24.000000
 -0.333333  0.066667  0.000000     24.000000
 -0.266667  0.066667  0.000000     24.000000
 -0.200000  0.066667  0.000000     24.000000
 -0.133333  0.066667  0.000000     24.000000
 -0.066667  0.066667  0.000000     12.000000
  0.133333  0.133333  0.000000      6.000000
  0.200000  0.133333  0.000000     24.000000
  0.266667  0.133333  0.000000     24.000000
  0.333333  0.133333  0.000000     24.000000
  0.400000  0.133333  0.000000     24.000000
  0.466667  0.133333  0.000000     24.000000
 -0.466667  0.133333  0.000000     24.000000
 -0.400000  0.133333  0.000000     24.000000
 -0.333333  0.133333  0.000000     24.000000
 -0.266667  0.133333  0.000000     24.000000
 -0.200000  0.133333  0.000000     24.000000
 -0.133333  0.133333  0.000000     12.000000
  0.200000  0.200000  0.000000      6.000000
  0.266667  0.200000  0.000000     24.000000
  0.333333  0.200000  0.000000     24.000000
  0.400000  0.200000  0.000000     24.000000
  0.466667  0.200000  0.000000     24.000000
 -0.466667  0.200000  0.000000     24.000000
 -0.400000  0.200000  0.000000     24.000000
 -0.333333  0.200000  0.000000     24.000000
 -0.266667  0.200000  0.000000     24.000000
 -0.200000  0.200000  0.000000     12.000000
  0.266667  0.266667  0.000000      6.000000
  0.333333  0.266667  0.000000     24.000000
  0.400000  0.266667  0.000000     24.000000
  0.466667  0.266667  0.000000     24.000000
 -0.466667  0.266667  0.000000     24.000000
 -0.400000  0.266667  0.000000     24.000000
 -0.333333  0.266667  0.000000     24.000000
 -0.266667  0.266667  0.000000     12.000000
  0.333333  0.333333  0.000000      6.000000
  0.400000  0.333333  0.000000     24.000000
  0.466667  0.333333  0.000000     24.000000
 -0.466667  0.333333  0.000000     24.000000
 -0.400000  0.333333  0.000000     24.000000
 -0.333333  0.333333  0.000000     12.000000
  0.400000  0.400000  0.000000      6.000000
  0.466667  0.400000  0.000000     24.000000
 -0.466667  0.400000  0.000000     24.000000
 -0.400000  0.400000  0.000000     12.000000
  0.466667  0.466667  0.000000      6.000000
 -0.466667  0.466667  0.000000     12.000000
  0.200000  0.133333  0.066667     24.000000
  0.266667  0.133333  0.066667     48.000000
  0.333333  0.133333  0.066667     48.000000
  0.400000  0.133333  0.066667     48.000000
  0.466667  0.133333  0.066667     48.000000
 -0.466667  0.133333  0.066667     48.000000
  0.266667  0.200000  0.066667     24.000000
  0.333333  0.200000  0.066667     48.000000
  0.400000  0.200000  0.066667     48.000000
  0.466667  0.200000  0.066667     48.000000
 -0.466667  0.200000  0.066667     48.000000
 -0.400000  0.200000  0.066667     48.000000
 -0.333333  0.200000  0.066667     48.000000
 -0.266667  0.200000  0.066667     48.000000
 -0.200000  0.200000  0.066667     48.000000
 -0.133333  0.200000  0.066667     24.000000
  0.333333  0.266667  0.066667     24.000000
  0.400000  0.266667  0.066667     48.000000
  0.466667  0.266667  0.066667     48.000000
 -0.466667  0.266667  0.066667     48.000000
 -0.400000  0.266667  0.066667     48.000000
 -0.333333  0.266667  0.066667     48.000000
 -0.266667  0.266667  0.066667     48.000000
 -0.200000  0.266667  0.066667     24.000000
  0.400000  0.333333  0.066667     24.000000
  0.466667  0.333333  0.066667     48.000000
 -0.466667  0.333333  0.066667     48.000000
 -0.400000  0.333333  0.066667     48.000000
 -0.333333  0.333333  0.066667     48.000000
 -0.266667  0.333333  0.066667     24.000000
  0.466667  0.400000  0.066667     24.000000
 -0.466667  0.400000  0.066667     48.000000
 -0.400000  0.400000  0.066667     48.000000
 -0.333333  0.400000  0.066667     24.000000
 -0.466667  0.466667  0.066667     24.000000
 -0.400000  0.466667  0.066667     24.000000
  0.400000  0.266667  0.133333     24.000000
  0.466667  0.266667  0.133333     48.000000
 -0.466667  0.266667  0.133333     48.000000
 -0.400000  0.266667  0.133333     48.000000
  0.466667  0.333333  0.133333     24.000000
 -0.466667  0.333333  0.133333     48.000000
 -0.400000  0.333333  0.133333     48.000000
 -0.333333  0.333333  0.133333     48.000000
 -0.266667  0.333333  0.133333     48.000000
 -0.200000  0.333333  0.133333     24.000000
 -0.466667  0.400000  0.133333     24.000000
 -0.400000  0.400000  0.133333     48.000000
 -0.333333  0.400000  0.133333     48.000000
 -0.266667  0.400000  0.133333     24.000000
 -0.400000  0.466667  0.133333     24.000000
 -0.333333  0.466667  0.133333     24.000000
 -0.400000  0.400000  0.200000     24.000000
 -0.333333  0.400000  0.200000     48.000000
 -0.333333  0.466667  0.200000     24.000000
 -0.266667  0.466667  0.200000     24.000000
 
 Following cartesian coordinates:
            Coordinates               Weight
  0.000000  0.000000  0.000000      1.000000
 -0.066667  0.066667  0.066667      8.000000
 -0.133333  0.133333  0.133333      8.000000
 -0.200000  0.200000  0.200000      8.000000
 -0.266667  0.266667  0.266667      8.000000
 -0.333333  0.333333  0.333333      8.000000
 -0.400000  0.400000  0.400000      8.000000
 -0.466667  0.466667  0.466667      8.000000
  0.000000  0.000000  0.133333      6.000000
 -0.066667  0.066667  0.200000     24.000000
 -0.133333  0.133333  0.266667     24.000000
 -0.200000  0.200000  0.333333     24.000000
 -0.266667  0.266667  0.400000     24.000000
 -0.333333  0.333333  0.466667     24.000000
 -0.400000  0.400000  0.533333     24.000000
  0.533333 -0.533333 -0.400000     24.000000
  0.466667 -0.466667 -0.333333     24.000000
  0.400000 -0.400000 -0.266667     24.000000
  0.333333 -0.333333 -0.200000     24.000000
  0.266667 -0.266667 -0.133333     24.000000
  0.200000 -0.200000 -0.066667     24.000000
  0.133333 -0.133333  0.000000     12.000000
  0.000000  0.000000  0.266667      6.000000
 -0.066667  0.066667  0.333333     24.000000
 -0.133333  0.133333  0.400000     24.000000
 -0.200000  0.200000  0.466667     24.000000
 -0.266667  0.266667  0.533333     24.000000
 -0.333333  0.333333  0.600000     24.000000
  0.600000 -0.600000 -0.333333     24.000000
  0.533333 -0.533333 -0.266667     24.000000
  0.466667 -0.466667 -0.200000     24.000000
  0.400000 -0.400000 -0.133333     24.000000
  0.333333 -0.333333 -0.066667     24.000000
  0.266667 -0.266667  0.000000     12.000000
  0.000000  0.000000  0.400000      6.000000
 -0.066667  0.066667  0.466667     24.000000
 -0.133333  0.133333  0.533333     24.000000
 -0.200000  0.200000  0.600000     24.000000
 -0.266667  0.266667  0.666667     24.000000
  0.666667 -0.666667 -0.266667     24.000000
  0.600000 -0.600000 -0.200000     24.000000
  0.533333 -0.533333 -0.133333     24.000000
  0.466667 -0.466667 -0.066667     24.000000
  0.400000 -0.400000  0.000000     12.000000
  0.000000  0.000000  0.533333      6.000000
 -0.066667  0.066667  0.600000     24.000000
 -0.133333  0.133333  0.666667     24.000000
 -0.200000  0.200000  0.733333     24.000000
  0.733333 -0.733333 -0.200000     24.000000
  0.666667 -0.666667 -0.133333     24.000000
  0.600000 -0.600000 -0.066667     24.000000
  0.533333 -0.533333  0.000000     12.000000
  0.000000  0.000000  0.666667      6.000000
 -0.066667  0.066667  0.733333     24.000000
 -0.133333  0.133333  0.800000     24.000000
  0.800000 -0.800000 -0.133333     24.000000
  0.733333 -0.733333 -0.066667     24.000000
  0.666667 -0.666667  0.000000     12.000000
  0.000000  0.000000  0.800000      6.000000
 -0.066667  0.066667  0.866667     24.000000
  0.866667 -0.866667 -0.066667     24.000000
  0.800000 -0.800000  0.000000     12.000000
  0.000000  0.000000  0.933333      6.000000
  0.933333 -0.933333  0.000000     12.000000
  0.000000  0.133333  0.266667     24.000000
 -0.066667  0.200000  0.333333     48.000000
 -0.133333  0.266667  0.400000     48.000000
 -0.200000  0.333333  0.466667     48.000000
 -0.266667  0.400000  0.533333     48.000000
  0.666667 -0.533333 -0.400000     48.000000
  0.000000  0.133333  0.400000     24.000000
 -0.066667  0.200000  0.466667     48.000000
 -0.133333  0.266667  0.533333     48.000000
 -0.200000  0.333333  0.600000     48.000000
  0.733333 -0.600000 -0.333333     48.000000
  0.666667 -0.533333 -0.266667     48.000000
  0.600000 -0.466667 -0.200000     48.000000
  0.533333 -0.400000 -0.133333     48.000000
  0.466667 -0.333333 -0.066667     48.000000
  0.400000 -0.266667  0.000000     24.000000
  0.000000  0.133333  0.533333     24.000000
 -0.066667  0.200000  0.600000     48.000000
 -0.133333  0.266667  0.666667     48.000000
  0.800000 -0.666667 -0.266667     48.000000
  0.733333 -0.600000 -0.200000     48.000000
  0.666667 -0.533333 -0.133333     48.000000
  0.600000 -0.466667 -0.066667     48.000000
  0.533333 -0.400000 -0.000000     24.000000
  0.000000  0.133333  0.666667     24.000000
 -0.066667  0.200000  0.733333     48.000000
  0.866667 -0.733333 -0.200000     48.000000
  0.800000 -0.666667 -0.133333     48.000000
  0.733333 -0.600000 -0.066667     48.000000
  0.666667 -0.533333  0.000000     24.000000
  0.000000  0.133333  0.800000     24.000000
  0.933333 -0.800000 -0.133333     48.000000
  0.866667 -0.733333 -0.066667     48.000000
  0.800000 -0.666667 -0.000000     24.000000
  1.000000 -0.866667 -0.066667     24.000000
  0.933333 -0.800000  0.000000     24.000000
  0.000000  0.266667  0.533333     24.000000
 -0.066667  0.333333  0.600000     48.000000
  0.866667 -0.600000 -0.333333     48.000000
  0.800000 -0.533333 -0.266667     48.000000
  0.000000  0.266667  0.666667     24.000000
  0.933333 -0.666667 -0.266667     48.000000
  0.866667 -0.600000 -0.200000     48.000000
  0.800000 -0.533333 -0.133333     48.000000
  0.733333 -0.466667 -0.066667     48.000000
  0.666667 -0.400000  0.000000     24.000000
  1.000000 -0.733333 -0.200000     24.000000
  0.933333 -0.666667 -0.133333     48.000000
  0.866667 -0.600000 -0.066667     48.000000
  0.800000 -0.533333  0.000000     24.000000
  1.000000 -0.733333 -0.066667     24.000000
  0.933333 -0.666667  0.000000     24.000000
  1.000000 -0.600000 -0.200000     24.000000
  0.933333 -0.533333 -0.133333     48.000000
  1.000000 -0.600000 -0.066667     24.000000
  0.933333 -0.533333  0.000000     24.000000
 


--------------------------------------------------------------------------------------------------------




 Dimension of arrays:
   k-points           NKPTS =    120   k-points in BZ     NKDIM =    120   number of bands    NBANDS=      6
   number of dos      NEDOS =    301   number of ions     NIONS =      1
   non local maximal  LDIM  =      4   non local SUM 2l+1 LMDIM =      8
   total plane-waves  NPLWV =   1000
   max r-space proj   IRMAX =      1   max aug-charges    IRDMAX=   2454
   dimension x,y,z NGX =    10 NGY =   10 NGZ =   10
   dimension x,y,z NGXF=    20 NGYF=   20 NGZF=   20
   support grid    NGXF=    20 NGYF=   20 NGZF=   20
   ions per type =               1
   NGX,Y,Z   is equivalent  to a cutoff of   6.03,  6.03,  6.03 a.u.
   NGXF,Y,Z  is equivalent  to a cutoff of  12.06, 12.06, 12.06 a.u.

 SYSTEM =  fcc Si                                  
 POSCAR =  fcc Si                                  

 Startparameter for this run:
   NWRITE =      2    write-flag & timer
   PREC   = normal    normal or accurate (medium, high low for compatibility)
   ISTART =      0    job   : 0-new  1-cont  2-samecut
   ICHARG =      2    charge: 1-file 2-atom 10-const
   ISPIN  =      1    spin polarized calculation?
   LNONCOLLINEAR =      F non collinear calculations
   LSORBIT =      F    spin-orbit coupling
   INIWAV =      1    electr: 0-lowe 1-rand  2-diag
   LASPH  =      F    aspherical Exc in radial PAW
 Electronic Relaxation 1
   ENCUT  =  240.0 eV  17.64 Ry    4.20 a.u.   3.48  3.48  3.48*2*pi/ulx,y,z
   ENINI  =  240.0     initial cutoff
   ENAUG  =  322.1 eV  augmentation charge cutoff
   NELM   =     60;   NELMIN=  2; NELMDL= -5     # of ELM steps 
   EDIFF  = 0.1E-03   stopping-criterion for ELM
   LREAL  =      F    real-space projection
   NLSPLINE    = F    spline interpolate recip. space projectors
   LCOMPAT=      F    compatible to vasp.4.4
   GGA_COMPAT  = T    GGA compatible to vasp.4.4-vasp.4.6
   LMAXPAW     = -100 max onsite density
   LMAXMIX     =    2 max onsite mixed and CHGCAR
   VOSKOWN=      0    Vosko Wilk Nusair interpolation
   ROPT   =    0.00000
 Ionic relaxation
   EDIFFG = 0.1E-02   stopping-criterion for IOM
   NSW    =      0    number of steps for IOM
   NBLOCK =      1;   KBLOCK =      1    inner block; outer block 
   IBRION =     -1    ionic relax: 0-MD 1-quasi-New 2-CG
   NFREE  =      0    steps in history (QN), initial steepest desc. (CG)
   ISIF   =      2    stress and relaxation
   IWAVPR =     10    prediction:  0-non 1-charg 2-wave 3-comb
   ISYM   =      2    0-nonsym 1-usesym 2-fastsym
   LCORR  =      T    Harris-Foulkes like correction to forces

   POTIM  = 0.5000    time-step for ionic-motion
   TEIN   =    0.0    initial temperature
   TEBEG  =    0.0;   TEEND  =   0.0 temperature during run
   SMASS  =  -3.00    Nose mass-parameter (am)
   estimated Nose-frequenzy (Omega)   =  0.10E-29 period in steps = 0.13E+47 mass=  -0.174E-27a.u.
   SCALEE = 1.0000    scale energy and forces
   NPACO  =    256;   APACO  = 10.0  distance and # of slots for P.C.
   PSTRESS=    0.0 pullay stress

  Mass of Ions in am
   POMASS =  28.09
  Ionic Valenz
   ZVAL   =   4.00
  Atomic Wigner-Seitz radii
   RWIGS  =  -1.00
  virtual crystal weights 
   VCA    =   1.00
   NELECT =       4.0000    total number of electrons
   NUPDOWN=      -1.0000    fix difference up-down

 DOS related values:
   EMIN   =  10.00;   EMAX   =-10.00  energy-range for DOS
   EFERMI =   0.00
   ISMEAR =    -5;   SIGMA  =   0.20  broadening in eV -4-tet -1-fermi 0-gaus

 Electronic relaxation 2 (details)
   IALGO  =     38    algorithm
   LDIAG  =      T    sub-space diagonalisation (order eigenvalues)
   LSUBROT=      F    optimize rotation matrix (better conditioning)
   TURBO    =      0    0=normal 1=particle mesh
   IRESTART =      0    0=no restart 2=restart with 2 vectors
   NREBOOT  =      0    no. of reboots
   NMIN     =      0    reboot dimension
   EREF     =   0.00    reference energy to select bands
   IMIX   =      4    mixing-type and parameters
     AMIX     =   0.40;   BMIX     =  1.00
     AMIX_MAG =   1.60;   BMIX_MAG =  1.00
     AMIN     =   0.10
     WC   =   100.;   INIMIX=   1;  MIXPRE=   1;  MAXMIX= -45

 Intra band minimization:
   WEIMIN = 0.0000     energy-eigenvalue tresh-hold
   EBREAK =  0.42E-05  absolut break condition
   DEPER  =   0.30     relativ break condition  

   TIME   =   0.40     timestep for ELM

  volume/ion in A,a.u.               =      14.83       100.08
  Fermi-wavevector in a.u.,A,eV,Ry     =   1.057751  1.998860 15.222711  1.118838
  Thomas-Fermi vector in A             =   2.193036

 Write flags
   LWAVE        =      T    write WAVECAR
   LDOWNSAMPLE  =      F    k-point downsampling of WAVECAR
   LCHARG       =      T    write CHGCAR
   LVTOT        =      F    write LOCPOT, total local potential
   LVHAR        =      F    write LOCPOT, Hartree potential only
   LELF         =      F    write electronic localiz. function (ELF)
   LORBIT       =     11    0 simple, 1 ext, 2 COOP (PROOUT), +10 PAW based schemes


 Dipole corrections
   LMONO  =      F    monopole corrections only (constant potential shift)
   LDIPOL =      F    correct potential (dipole corrections)
   IDIPOL =      0    1-x, 2-y, 3-z, 4-all directions 
   EPSILON=  1.0000000 bulk dielectric constant

 Exchange correlation treatment:
   GGA     =    --    GGA type
   LEXCH   =     8    internal setting for exchange type
   LIBXC   =     F    Libxc                    
   VOSKOWN =     0    Vosko Wilk Nusair interpolation
   LHFCALC =     F    Hartree Fock is set to
   LHFONE  =     F    Hartree Fock one center treatment
   AEXX    =    0.0000 exact exchange contribution

 Linear response parameters
   LEPSILON=     F    determine dielectric tensor
   LRPA    =     F    only Hartree local field effects (RPA)
   LNABLA  =     F    use nabla operator in PAW spheres
   LVEL    =     F    velocity operator in full k-point grid
   CSHIFT  =0.1000    complex shift for real part using Kramers Kronig
   OMEGAMAX=  -1.0    maximum frequency
   DEG_THRESHOLD= 0.2000000E-02 threshold for treating states as degnerate
   RTIME   =   -0.100 relaxation time in fs
  (WPLASMAI=    0.000 imaginary part of plasma frequency in eV, 0.658/RTIME)
   DFIELD  = 0.0000000 0.0000000 0.0000000 field for delta impulse in time

  Optional k-point grid parameters
   LKPOINTS_OPT  =     F    use optional k-point grid
   KPOINTS_OPT_MODE=     1    mode for optional k-point grid

 Orbital magnetization related:
   ORBITALMAG=     F  switch on orbital magnetization
   LCHIMAG   =     F  perturbation theory with respect to B field
   DQ        =  0.001000  dq finite difference perturbation B field
   LLRAUG    =     F  two centre corrections for induced B field



--------------------------------------------------------------------------------------------------------


 Static calculation
 charge density and potential will be updated during run
 non-spin polarized calculation
 Variant of blocked Davidson
 Davidson routine will perform the subspace rotation
 perform sub-space diagonalisation
    after iterative eigenvector-optimisation
 modified Broyden-mixing scheme, WC =      100.0
 initial mixing is a Kerker type mixing with AMIX =  0.4000 and BMIX =      1.0000
 Hartree-type preconditioning will be used
 using additional bands            4
 reciprocal scheme for non local part
 use partial core corrections
 calculate Harris-corrections to forces   (improved forces if not selfconsistent)
 use gradient corrections 
 use of overlap-Matrix (Vanderbilt PP)
 Fermi weights with tetrahedron method with Bloechl corrections


--------------------------------------------------------------------------------------------------------


  energy-cutoff  :      240.00
  volume of cell :       14.83
      direct lattice vectors                 reciprocal lattice vectors
     0.000000000  1.950000000  1.950000000    -0.256410256  0.256410256  0.256410256
     1.950000000  0.000000000  1.950000000     0.256410256 -0.256410256  0.256410256
     1.950000000  1.950000000  0.000000000     0.256410256  0.256410256 -0.256410256

  length of vectors
     2.757716447  2.757716447  2.757716447     0.444115592  0.444115592  0.444115592



 k-points in units of 2pi/SCALE and weight: K-Points                                
   0.00000000  0.00000000  0.00000000       0.000
  -0.06666667  0.06666667  0.06666667       0.002
  -0.13333333  0.13333333  0.13333333       0.002
  -0.20000000  0.20000000  0.20000000       0.002
  -0.26666667  0.26666667  0.26666667       0.002
  -0.33333333  0.33333333  0.33333333       0.002
  -0.40000000  0.40000000  0.40000000       0.002
  -0.46666667  0.46666667  0.46666667       0.002
   0.00000000  0.00000000  0.13333333       0.002
  -0.06666667  0.06666667  0.20000000       0.007
  -0.13333333  0.13333333  0.26666667       0.007
  -0.20000000  0.20000000  0.33333333       0.007
  -0.26666667  0.26666667  0.40000000       0.007
  -0.33333333  0.33333333  0.46666667       0.007
  -0.40000000  0.40000000  0.53333333       0.007
   0.53333333 -0.53333333 -0.40000000       0.007
   0.46666667 -0.46666667 -0.33333333       0.007
   0.40000000 -0.40000000 -0.26666667       0.007
   0.33333333 -0.33333333 -0.20000000       0.007
   0.26666667 -0.26666667 -0.13333333       0.007
   0.20000000 -0.20000000 -0.06666667       0.007
   0.13333333 -0.13333333  0.00000000       0.004
   0.00000000  0.00000000  0.26666667       0.002
  -0.06666667  0.06666667  0.33333333       0.007
  -0.13333333  0.13333333  0.40000000       0.007
  -0.20000000  0.20000000  0.46666667       0.007
  -0.26666667  0.26666667  0.53333333       0.007
  -0.33333333  0.33333333  0.60000000       0.007
   0.60000000 -0.60000000 -0.33333333       0.007
   0.53333333 -0.53333333 -0.26666667       0.007
   0.46666667 -0.46666667 -0.20000000       0.007
   0.40000000 -0.40000000 -0.13333333       0.007
   0.33333333 -0.33333333 -0.06666667       0.007
   0.26666667 -0.26666667  0.00000000       0.004
   0.00000000  0.00000000  0.40000000       0.002
  -0.06666667  0.06666667  0.46666667       0.007
  -0.13333333  0.13333333  0.53333333       0.007
  -0.20000000  0.20000000  0.60000000       0.007
  -0.26666667  0.26666667  0.66666667       0.007
   0.66666667 -0.66666667 -0.26666667       0.007
   0.60000000 -0.60000000 -0.20000000       0.007
   0.53333333 -0.53333333 -0.13333333       0.007
   0.46666667 -0.46666667 -0.06666667       0.007
   0.40000000 -0.40000000  0.00000000       0.004
   0.00000000  0.00000000  0.53333333       0.002
  -0.06666667  0.06666667  0.60000000       0.007
  -0.13333333  0.13333333  0.66666667       0.007
  -0.20000000  0.20000000  0.73333333       0.007
   0.73333333 -0.73333333 -0.20000000       0.007
   0.66666667 -0.66666667 -0.13333333       0.007
   0.60000000 -0.60000000 -0.06666667       0.007
   0.53333333 -0.53333333  0.00000000       0.004
   0.00000000  0.00000000  0.66666667       0.002
  -0.06666667  0.06666667  0.73333333       0.007
  -0.13333333  0.13333333  0.80000000       0.007
   0.80000000 -0.80000000 -0.13333333       0.007
   0.73333333 -0.73333333 -0.06666667       0.007
   0.66666667 -0.66666667  0.00000000       0.004
   0.00000000  0.00000000  0.80000000       0.002
  -0.06666667  0.06666667  0.86666667       0.007
   0.86666667 -0.86666667 -0.06666667       0.007
   0.80000000 -0.80000000  0.00000000       0.004
   0.00000000  0.00000000  0.93333333       0.002
   0.93333333 -0.93333333  0.00000000       0.004
   0.00000000  0.13333333  0.26666667       0.007
  -0.06666667  0.20000000  0.33333333       0.014
  -0.13333333  0.26666667  0.40000000       0.014
  -0.20000000  0.33333333  0.46666667       0.014
  -0.26666667  0.40000000  0.53333333       0.014
   0.66666667 -0.53333333 -0.40000000       0.014
   0.00000000  0.13333333  0.40000000       0.007
  -0.06666667  0.20000000  0.46666667       0.014
  -0.13333333  0.26666667  0.53333333       0.014
  -0.20000000  0.33333333  0.60000000       0.014
   0.73333333 -0.60000000 -0.33333333       0.014
   0.66666667 -0.53333333 -0.26666667       0.014
   0.60000000 -0.46666667 -0.20000000       0.014
   0.53333333 -0.40000000 -0.13333333       0.014
   0.46666667 -0.33333333 -0.06666667       0.014
   0.40000000 -0.26666667  0.00000000       0.007
   0.00000000  0.13333333  0.53333333       0.007
  -0.06666667  0.20000000  0.60000000       0.014
  -0.13333333  0.26666667  0.66666667       0.014
   0.80000000 -0.66666667 -0.26666667       0.014
   0.73333333 -0.60000000 -0.20000000       0.014
   0.66666667 -0.53333333 -0.13333333       0.014
   0.60000000 -0.46666667 -0.06666667       0.014
   0.53333333 -0.40000000 -0.00000000       0.007
   0.00000000  0.13333333  0.66666667       0.007
  -0.06666667  0.20000000  0.73333333       0.014
   0.86666667 -0.73333333 -0.20000000       0.014
   0.80000000 -0.66666667 -0.13333333       0.014
   0.73333333 -0.60000000 -0.06666667       0.014
   0.66666667 -0.53333333  0.00000000       0.007
   0.00000000  0.13333333  0.80000000       0.007
   0.93333333 -0.80000000 -0.13333333       0.014
   0.86666667 -0.73333333 -0.06666667       0.014
   0.80000000 -0.66666667 -0.00000000       0.007
   1.00000000 -0.86666667 -0.06666667       0.007
   0.93333333 -0.80000000  0.00000000       0.007
   0.00000000  0.26666667  0.53333333       0.007
  -0.06666667  0.33333333  0.60000000       0.014
   0.86666667 -0.60000000 -0.33333333       0.014
   0.80000000 -0.53333333 -0.26666667       0.014
   0.00000000  0.26666667  0.66666667       0.007
   0.93333333 -0.66666667 -0.26666667       0.014
   0.86666667 -0.60000000 -0.20000000       0.014
   0.80000000 -0.53333333 -0.13333333       0.014
   0.73333333 -0.46666667 -0.06666667       0.014
   0.66666667 -0.40000000  0.00000000       0.007
   1.00000000 -0.73333333 -0.20000000       0.007
   0.93333333 -0.66666667 -0.13333333       0.014
   0.86666667 -0.60000000 -0.06666667       0.014
   0.80000000 -0.53333333  0.00000000       0.007
   1.00000000 -0.73333333 -0.06666667       0.007
   0.93333333 -0.66666667  0.00000000       0.007
   1.00000000 -0.60000000 -0.20000000       0.007
   0.93333333 -0.53333333 -0.13333333       0.014
   1.00000000 -0.60000000 -0.06666667       0.007
   0.93333333 -0.53333333  0.00000000       0.007

 k-points in reciprocal lattice and weights: K-Points                                
   0.00000000  0.00000000  0.00000000       0.000
   0.06666667  0.00000000  0.00000000       0.002
   0.13333333  0.00000000  0.00000000       0.002
   0.20000000  0.00000000  0.00000000       0.002
   0.26666667  0.00000000  0.00000000       0.002
   0.33333333  0.00000000  0.00000000       0.002
   0.40000000  0.00000000  0.00000000       0.002
   0.46666667  0.00000000  0.00000000       0.002
   0.06666667  0.06666667  0.00000000       0.002
   0.13333333  0.06666667  0.00000000       0.007
   0.20000000  0.06666667  0.00000000       0.007
   0.26666667  0.06666667  0.00000000       0.007
   0.33333333  0.06666667  0.00000000       0.007
   0.40000000  0.06666667  0.00000000       0.007
   0.46666667  0.06666667  0.00000000       0.007
  -0.46666667  0.06666667  0.00000000       0.007
  -0.40000000  0.06666667  0.00000000       0.007
  -0.33333333  0.06666667  0.00000000       0.007
  -0.26666667  0.06666667  0.00000000       0.007
  -0.20000000  0.06666667  0.00000000       0.007
  -0.13333333  0.06666667  0.00000000       0.007
  -0.06666667  0.06666667  0.00000000       0.004
   0.13333333  0.13333333  0.00000000       0.002
   0.20000000  0.13333333  0.00000000       0.007
   0.26666667  0.13333333  0.00000000       0.007
   0.33333333  0.13333333  0.00000000       0.007
   0.40000000  0.13333333  0.00000000       0.007
   0.46666667  0.13333333  0.00000000       0.007
  -0.46666667  0.13333333  0.00000000       0.007
  -0.40000000  0.13333333  0.00000000       0.007
  -0.33333333  0.13333333  0.00000000       0.007
  -0.26666667  0.13333333  0.00000000       0.007
  -0.20000000  0.13333333  0.00000000       0.007
  -0.13333333  0.13333333  0.00000000       0.004
   0.20000000  0.20000000  0.00000000       0.002
   0.26666667  0.20000000  0.00000000       0.007
   0.33333333  0.20000000  0.00000000       0.007
   0.40000000  0.20000000  0.00000000       0.007
   0.46666667  0.20000000  0.00000000       0.007
  -0.46666667  0.20000000  0.00000000       0.007
  -0.40000000  0.20000000  0.00000000       0.007
  -0.33333333  0.20000000  0.00000000       0.007
  -0.26666667  0.20000000  0.00000000       0.007
  -0.20000000  0.20000000  0.00000000       0.004
   0.26666667  0.26666667  0.00000000       0.002
   0.33333333  0.26666667  0.00000000       0.007
   0.40000000  0.26666667  0.00000000       0.007
   0.46666667  0.26666667  0.00000000       0.007
  -0.46666667  0.26666667  0.00000000       0.007
  -0.40000000  0.26666667  0.00000000       0.007
  -0.33333333  0.26666667  0.00000000       0.007
  -0.26666667  0.26666667  0.00000000       0.004
   0.33333333  0.33333333  0.00000000       0.002
   0.40000000  0.33333333  0.00000000       0.007
   0.46666667  0.33333333  0.00000000       0.007
  -0.46666667  0.33333333  0.00000000       0.007
  -0.40000000  0.33333333  0.00000000       0.007
  -0.33333333  0.33333333  0.00000000       0.004
   0.40000000  0.40000000  0.00000000       0.002
   0.46666667  0.40000000  0.00000000       0.007
  -0.46666667  0.40000000  0.00000000       0.007
  -0.40000000  0.40000000  0.00000000       0.004
   0.46666667  0.46666667  0.00000000       0.002
  -0.46666667  0.46666667  0.00000000       0.004
   0.20000000  0.13333333  0.06666667       0.007
   0.26666667  0.13333333  0.06666667       0.014
   0.33333333  0.13333333  0.06666667       0.014
   0.40000000  0.13333333  0.06666667       0.014
   0.46666667  0.13333333  0.06666667       0.014
  -0.46666667  0.13333333  0.06666667       0.014
   0.26666667  0.20000000  0.06666667       0.007
   0.33333333  0.20000000  0.06666667       0.014
   0.40000000  0.20000000  0.06666667       0.014
   0.46666667  0.20000000  0.06666667       0.014
  -0.46666667  0.20000000  0.06666667       0.014
  -0.40000000  0.20000000  0.06666667       0.014
  -0.33333333  0.20000000  0.06666667       0.014
  -0.26666667  0.20000000  0.06666667       0.014
  -0.20000000  0.20000000  0.06666667       0.014
  -0.13333333  0.20000000  0.06666667       0.007
   0.33333333  0.26666667  0.06666667       0.007
   0.40000000  0.26666667  0.06666667       0.014
   0.46666667  0.26666667  0.06666667       0.014
  -0.46666667  0.26666667  0.06666667       0.014
  -0.40000000  0.26666667  0.06666667       0.014
  -0.33333333  0.26666667  0.06666667       0.014
  -0.26666667  0.26666667  0.06666667       0.014
  -0.20000000  0.26666667  0.06666667       0.007
   0.40000000  0.33333333  0.06666667       0.007
   0.46666667  0.33333333  0.06666667       0.014
  -0.46666667  0.33333333  0.06666667       0.014
  -0.40000000  0.33333333  0.06666667       0.014
  -0.33333333  0.33333333  0.06666667       0.014
  -0.26666667  0.33333333  0.06666667       0.007
   0.46666667  0.40000000  0.06666667       0.007
  -0.46666667  0.40000000  0.06666667       0.014
  -0.40000000  0.40000000  0.06666667       0.014
  -0.33333333  0.40000000  0.06666667       0.007
  -0.46666667  0.46666667  0.06666667       0.007
  -0.40000000  0.46666667  0.06666667       0.007
   0.40000000  0.26666667  0.13333333       0.007
   0.46666667  0.26666667  0.13333333       0.014
  -0.46666667  0.26666667  0.13333333       0.014
  -0.40000000  0.26666667  0.13333333       0.014
   0.46666667  0.33333333  0.13333333       0.007
  -0.46666667  0.33333333  0.13333333       0.014
  -0.40000000  0.33333333  0.13333333       0.014
  -0.33333333  0.33333333  0.13333333       0.014
  -0.26666667  0.33333333  0.13333333       0.014
  -0.20000000  0.33333333  0.13333333       0.007
  -0.46666667  0.40000000  0.13333333       0.007
  -0.40000000  0.40000000  0.13333333       0.014
  -0.33333333  0.40000000  0.13333333       0.014
  -0.26666667  0.40000000  0.13333333       0.007
  -0.40000000  0.46666667  0.13333333       0.007
  -0.33333333  0.46666667  0.13333333       0.007
  -0.40000000  0.40000000  0.20000000       0.007
  -0.33333333  0.40000000  0.20000000       0.014
  -0.33333333  0.46666667  0.20000000       0.007
  -0.26666667  0.46666667  0.20000000       0.007

 position of ions in fractional coordinates (direct lattice) 
   0.00000000  0.00000000  0.00000000

 position of ions in cartesian coordinates  (Angst):
   0.00000000  0.00000000  0.00000000



--------------------------------------------------------------------------------------------------------


 k-point   1 :   0.0000 0.0000 0.0000  plane waves:     137
 k-point   2 :   0.0667 0.0000 0.0000  plane waves:     128
 k-point   3 :   0.1333 0.0000 0.0000  plane waves:     128
 k-point   4 :   0.2000 0.0000 0.0000  plane waves:     129
 k-point   5 :   0.2667 0.0000 0.0000  plane waves:     132
 k-point   6 :   0.3333 0.0000 0.0000  plane waves:     126
 k-point   7 :   0.4000 0.0000 0.0000  plane waves:     123
 k-point   8 :   0.4667 0.0000 0.0000  plane waves:     120
 k-point   9 :   0.0667 0.0667 0.0000  plane waves:     125
 k-point  10 :   0.1333 0.0667 0.0000  plane waves:     127
 k-point  11 :   0.2000 0.0667 0.0000  plane waves:     127
 k-point  12 :   0.2667 0.0667 0.0000  plane waves:     131
 k-point  13 :   0.3333 0.0667 0.0000  plane waves:     129
 k-point  14 :   0.4000 0.0667 0.0000  plane waves:     125
 k-point  15 :   0.4667 0.0667 0.0000  plane waves:     125
 k-point  16 :  -0.4667 0.0667 0.0000  plane waves:     129
 k-point  17 :  -0.4000 0.0667 0.0000  plane waves:     126
 k-point  18 :  -0.3333 0.0667 0.0000  plane waves:     129
 k-point  19 :  -0.2667 0.0667 0.0000  plane waves:     133
 k-point  20 :  -0.2000 0.0667 0.0000  plane waves:     130
 k-point  21 :  -0.1333 0.0667 0.0000  plane waves:     125
 k-point  22 :  -0.0667 0.0667 0.0000  plane waves:     127
 k-point  23 :   0.1333 0.1333 0.0000  plane waves:     125
 k-point  24 :   0.2000 0.1333 0.0000  plane waves:     129
 k-point  25 :   0.2667 0.1333 0.0000  plane waves:     132
 k-point  26 :   0.3333 0.1333 0.0000  plane waves:     130
 k-point  27 :   0.4000 0.1333 0.0000  plane waves:     130
 k-point  28 :   0.4667 0.1333 0.0000  plane waves:     125
 k-point  29 :  -0.4667 0.1333 0.0000  plane waves:     125
 k-point  30 :  -0.4000 0.1333 0.0000  plane waves:     127
 k-point  31 :  -0.3333 0.1333 0.0000  plane waves:     128
 k-point  32 :  -0.2667 0.1333 0.0000  plane waves:     130
 k-point  33 :  -0.2000 0.1333 0.0000  plane waves:     131
 k-point  34 :  -0.1333 0.1333 0.0000  plane waves:     133
 k-point  35 :   0.2000 0.2000 0.0000  plane waves:     129
 k-point  36 :   0.2667 0.2000 0.0000  plane waves:     130
 k-point  37 :   0.3333 0.2000 0.0000  plane waves:     130
 k-point  38 :   0.4000 0.2000 0.0000  plane waves:     124
 k-point  39 :   0.4667 0.2000 0.0000  plane waves:     126
 k-point  40 :  -0.4667 0.2000 0.0000  plane waves:     125
 k-point  41 :  -0.4000 0.2000 0.0000  plane waves:     125
 k-point  42 :  -0.3333 0.2000 0.0000  plane waves:     127
 k-point  43 :  -0.2667 0.2000 0.0000  plane waves:     129
 k-point  44 :  -0.2000 0.2000 0.0000  plane waves:     131
 k-point  45 :   0.2667 0.2667 0.0000  plane waves:     129
 k-point  46 :   0.3333 0.2667 0.0000  plane waves:     128
 k-point  47 :   0.4000 0.2667 0.0000  plane waves:     126
 k-point  48 :   0.4667 0.2667 0.0000  plane waves:     124
 k-point  49 :  -0.4667 0.2667 0.0000  plane waves:     125
 k-point  50 :  -0.4000 0.2667 0.0000  plane waves:     123
 k-point  51 :  -0.3333 0.2667 0.0000  plane waves:     126
 k-point  52 :  -0.2667 0.2667 0.0000  plane waves:     126
 k-point  53 :   0.3333 0.3333 0.0000  plane waves:     129
 k-point  54 :   0.4000 0.3333 0.0000  plane waves:     127
 k-point  55 :   0.4667 0.3333 0.0000  plane waves:     122
 k-point  56 :  -0.4667 0.3333 0.0000  plane waves:     124
 k-point  57 :  -0.4000 0.3333 0.0000  plane waves:     122
 k-point  58 :  -0.3333 0.3333 0.0000  plane waves:     122
 k-point  59 :   0.4000 0.4000 0.0000  plane waves:     121
 k-point  60 :   0.4667 0.4000 0.0000  plane waves:     119
 k-point  61 :  -0.4667 0.4000 0.0000  plane waves:     118
 k-point  62 :  -0.4000 0.4000 0.0000  plane waves:     120
 k-point  63 :   0.4667 0.4667 0.0000  plane waves:     116
 k-point  64 :  -0.4667 0.4667 0.0000  plane waves:     116
 k-point  65 :   0.2000 0.1333 0.0667  plane waves:     129
 k-point  66 :   0.2667 0.1333 0.0667  plane waves:     131
 k-point  67 :   0.3333 0.1333 0.0667  plane waves:     133
 k-point  68 :   0.4000 0.1333 0.0667  plane waves:     129
 k-point  69 :   0.4667 0.1333 0.0667  plane waves:     125
 k-point  70 :  -0.4667 0.1333 0.0667  plane waves:     125
 k-point  71 :   0.2667 0.2000 0.0667  plane waves:     131
 k-point  72 :   0.3333 0.2000 0.0667  plane waves:     132
 k-point  73 :   0.4000 0.2000 0.0667  plane waves:     128
 k-point  74 :   0.4667 0.2000 0.0667  plane waves:     126
 k-point  75 :  -0.4667 0.2000 0.0667  plane waves:     122
 k-point  76 :  -0.4000 0.2000 0.0667  plane waves:     124
 k-point  77 :  -0.3333 0.2000 0.0667  plane waves:     126
 k-point  78 :  -0.2667 0.2000 0.0667  plane waves:     130
 k-point  79 :  -0.2000 0.2000 0.0667  plane waves:     129
 k-point  80 :  -0.1333 0.2000 0.0667  plane waves:     132
 k-point  81 :   0.3333 0.2667 0.0667  plane waves:     128
 k-point  82 :   0.4000 0.2667 0.0667  plane waves:     126
 k-point  83 :   0.4667 0.2667 0.0667  plane waves:     124
 k-point  84 :  -0.4667 0.2667 0.0667  plane waves:     124
 k-point  85 :  -0.4000 0.2667 0.0667  plane waves:     122
 k-point  86 :  -0.3333 0.2667 0.0667  plane waves:     126
 k-point  87 :  -0.2667 0.2667 0.0667  plane waves:     127
 k-point  88 :  -0.2000 0.2667 0.0667  plane waves:     127
 k-point  89 :   0.4000 0.3333 0.0667  plane waves:     129
 k-point  90 :   0.4667 0.3333 0.0667  plane waves:     126
 k-point  91 :  -0.4667 0.3333 0.0667  plane waves:     126
 k-point  92 :  -0.4000 0.3333 0.0667  plane waves:     121
 k-point  93 :  -0.3333 0.3333 0.0667  plane waves:     121
 k-point  94 :  -0.2667 0.3333 0.0667  plane waves:     126
 k-point  95 :   0.4667 0.4000 0.0667  plane waves:     124
 k-point  96 :  -0.4667 0.4000 0.0667  plane waves:     125
 k-point  97 :  -0.4000 0.4000 0.0667  plane waves:     124
 k-point  98 :  -0.3333 0.4000 0.0667  plane waves:     121
 k-point  99 :  -0.4667 0.4667 0.0667  plane waves:     117
 k-point 100 :  -0.4000 0.4667 0.0667  plane waves:     120
 k-point 101 :   0.4000 0.2667 0.1333  plane waves:     127
 k-point 102 :   0.4667 0.2667 0.1333  plane waves:     126
 k-point 103 :  -0.4667 0.2667 0.1333  plane waves:     123
 k-point 104 :  -0.4000 0.2667 0.1333  plane waves:     123
 k-point 105 :   0.4667 0.3333 0.1333  plane waves:     126
 k-point 106 :  -0.4667 0.3333 0.1333  plane waves:     124
 k-point 107 :  -0.4000 0.3333 0.1333  plane waves:     119
 k-point 108 :  -0.3333 0.3333 0.1333  plane waves:     120
 k-point 109 :  -0.2667 0.3333 0.1333  plane waves:     123
 k-point 110 :  -0.2000 0.3333 0.1333  plane waves:     125
 k-point 111 :  -0.4667 0.4000 0.1333  plane waves:     125
 k-point 112 :  -0.4000 0.4000 0.1333  plane waves:     123
 k-point 113 :  -0.3333 0.4000 0.1333  plane waves:     122
 k-point 114 :  -0.2667 0.4000 0.1333  plane waves:     123
 k-point 115 :  -0.4000 0.4667 0.1333  plane waves:     122
 k-point 116 :  -0.3333 0.4667 0.1333  plane waves:     122
 k-point 117 :  -0.4000 0.4000 0.2000  plane waves:     123
 k-point 118 :  -0.3333 0.4000 0.2000  plane waves:     118
 k-point 119 :  -0.3333 0.4667 0.2000  plane waves:     116
 k-point 120 :  -0.2667 0.4667 0.2000  plane waves:     116

 maximum and minimum number of plane-waves per node :       137      116

 maximum number of plane-waves:       137
 maximum index in each direction: 
   IXMAX=    3   IYMAX=    3   IZMAX=    3
   IXMIN=   -3   IYMIN=   -3   IZMIN=   -3


 serial   3D FFT for wavefunctions
 parallel 3D FFT for charge:
    minimum data exchange during FFTs selected (reduces bandwidth)


 total amount of memory used by VASP MPI-rank0    32297. kBytes
=======================================================================

   base      :      30000. kBytes
   nonl-proj :       1062. kBytes
   fftplans  :        146. kBytes
   grid      :        246. kBytes
   one-center:          3. kBytes
   wavefun   :        840. kBytes

     INWAV:  cpu time      0.0000: real time      0.0000
 Broyden mixing: mesh for mixing (old mesh)
   NGX =  7   NGY =  7   NGZ =  7
  (NGX  = 20   NGY  = 20   NGZ  = 20)
  gives a total of    343 points

 initial charge density was supplied:
 charge density of overlapping atoms calculated
 number of electron       4.0000000 magnetization 
 keeping initial charge density in first step


--------------------------------------------------------------------------------------------------------


 Maximum index for augmentation-charges         1077 (set IRDMAX)


--------------------------------------------------------------------------------------------------------


 First call to EWALD:  gamma=   0.721
 Maximum number of real-space cells 3x 3x 3
 Maximum number of reciprocal cells 3x 3x 3

    FEWALD:  cpu time      0.0003: real time      0.0003


--------------------------------------- Iteration      1(   1)  ---------------------------------------


    POTLOK:  cpu time      0.0013: real time      0.0013
    SETDIJ:  cpu time      0.0006: real time      0.0006
     EDDAV:  cpu time      0.1368: real time      0.1368
 BZINTS: Fermi energy:   10.882030;    4.000000 electrons
         Band energy: 0.187904E+02;  BLOECHL correction:   -0.181049
       DOS:  cpu time      0.0067: real time      0.0067
    --------------------------------------------
      LOOP:  cpu time      0.1454: real time      0.1454

 eigenvalue-minimisations  :  1602
 total energy-change (2. order) :-0.3237168E+01  (-0.1168423E+03)
 number of electron       4.0000000 magnetization 
 augmentation part        4.0000000 magnetization 

 Free energy of the ion-electron system (eV)
  ---------------------------------------------------
  alpha Z        PSCENC =         2.26997291
  Ewald energy   TEWEN  =      -135.42777035
  -Hartree energ DENC   =        -0.65300112
  -exchange      EXHF   =         0.00000000
  -V(xc)+E(xc)   XCENC  =        -8.87078640
  PAW double counting   =        88.12379961      -70.53051779
  entropy T*S    EENTRO =         0.00000000
  eigenvalues    EBANDS =        18.79035905
  atomic energy  EATOM  =       103.06077658
  Solvation  Ediel_sol  =         0.00000000
  ---------------------------------------------------
  free energy    TOTEN  =        -3.23716750 eV

  energy without entropy =       -3.23716750  energy(sigma->0) =       -3.23716750


--------------------------------------------------------------------------------------------------------




--------------------------------------- Iteration      1(   2)  ---------------------------------------


     EDDAV:  cpu time      0.1633: real time      0.1632
 BZINTS: Fermi energy:    9.970394;    4.000000 electrons
         Band energy: 0.171511E+02;  BLOECHL correction:   -0.113073
       DOS:  cpu time      0.0065: real time      0.0065
    --------------------------------------------
      LOOP:  cpu time      0.1698: real time      0.1698

 eigenvalue-minimisations  :  2052
 total energy-change (2. order) :-0.1639235E+01  (-0.1611951E+01)
 number of electron       4.0000000 magnetization 
 augmentation part        4.0000000 magnetization 

 Free energy of the ion-electron system (eV)
  ---------------------------------------------------
  alpha Z        PSCENC =         2.26997291
  Ewald energy   TEWEN  =      -135.42777035
  -Hartree energ DENC   =        -0.65300112
  -exchange      EXHF   =         0.00000000
  -V(xc)+E(xc)   XCENC  =        -8.87078640
  PAW double counting   =        88.12379961      -70.53051779
  entropy T*S    EENTRO =         0.00000000
  eigenvalues    EBANDS =        17.15112451
  atomic energy  EATOM  =       103.06077658
  Solvation  Ediel_sol  =         0.00000000
  ---------------------------------------------------
  free energy    TOTEN  =        -4.87640204 eV

  energy without entropy =       -4.87640204  energy(sigma->0) =       -4.87640204


--------------------------------------------------------------------------------------------------------




--------------------------------------- Iteration      1(   3)  ---------------------------------------


     EDDAV:  cpu time      0.1450: real time      0.1450
 BZINTS: Fermi energy:    9.965564;    4.000000 electrons
         Band energy: 0.171415E+02;  BLOECHL correction:   -0.112945
       DOS:  cpu time      0.0065: real time      0.0065
    --------------------------------------------
      LOOP:  cpu time      0.1515: real time      0.1515

 eigenvalue-minimisations  :  1788
 total energy-change (2. order) :-0.9615764E-02  (-0.9627993E-02)
 number of electron       4.0000000 magnetization 
 augmentation part        4.0000000 magnetization 

 Free energy of the ion-electron system (eV)
  ---------------------------------------------------
  alpha Z        PSCENC =         2.26997291
  Ewald energy   TEWEN  =      -135.42777035
  -Hartree energ DENC   =        -0.65300112
  -exchange      EXHF   =         0.00000000
  -V(xc)+E(xc)   XCENC  =        -8.87078640
  PAW double counting   =        88.12379961      -70.53051779
  entropy T*S    EENTRO =         0.00000000
  eigenvalues    EBANDS =        17.14150875
  atomic energy  EATOM  =       103.06077658
  Solvation  Ediel_sol  =         0.00000000
  ---------------------------------------------------
  free energy    TOTEN  =        -4.88601780 eV

  energy without entropy =       -4.88601780  energy(sigma->0) =       -4.88601780


--------------------------------------------------------------------------------------------------------




--------------------------------------- Iteration      1(   4)  ---------------------------------------


     EDDAV:  cpu time      0.1620: real time      0.1620
 BZINTS: Fermi energy:    9.965559;    4.000000 electrons
         Band energy: 0.171415E+02;  BLOECHL correction:   -0.112945
       DOS:  cpu time      0.0065: real time      0.0065
    --------------------------------------------
      LOOP:  cpu time      0.1684: real time      0.1684

 eigenvalue-minimisations  :  2016
 total energy-change (2. order) :-0.7740558E-05  (-0.7757138E-05)
 number of electron       4.0000000 magnetization 
 augmentation part        4.0000000 magnetization 

 Free energy of the ion-electron system (eV)
  ---------------------------------------------------
  alpha Z        PSCENC =         2.26997291
  Ewald energy   TEWEN  =      -135.42777035
  -Hartree energ DENC   =        -0.65300112
  -exchange      EXHF   =         0.00000000
  -V(xc)+E(xc)   XCENC  =        -8.87078640
  PAW double counting   =        88.12379961      -70.53051779
  entropy T*S    EENTRO =         0.00000000
  eigenvalues    EBANDS =        17.14150101
  atomic energy  EATOM  =       103.06077658
  Solvation  Ediel_sol  =         0.00000000
  ---------------------------------------------------
  free energy    TOTEN  =        -4.88602554 eV

  energy without entropy =       -4.88602554  energy(sigma->0) =       -4.88602554


--------------------------------------------------------------------------------------------------------




--------------------------------------- Iteration      1(   5)  ---------------------------------------


     EDDAV:  cpu time      0.1360: real time      0.1360
 BZINTS: Fermi energy:    9.965559;    4.000000 electrons
         Band energy: 0.171415E+02;  BLOECHL correction:   -0.112945
       DOS:  cpu time      0.0067: real time      0.0067
    CHARGE:  cpu time      0.0060: real time      0.0060
    MIXING:  cpu time      0.0001: real time      0.0001
    --------------------------------------------
      LOOP:  cpu time      0.1488: real time      0.1488

 eigenvalue-minimisations  :  1662
 total energy-change (2. order) :-0.5586131E-08  (-0.6500135E-08)
 number of electron       4.0000010 magnetization 
 augmentation part       -0.2420952 magnetization 

 Broyden mixing:
  rms(total) = 0.29454E+00    rms(broyden)= 0.29454E+00
  rms(prec ) = 0.41714E+00
  weight for this iteration     100.00

 Free energy of the ion-electron system (eV)
  ---------------------------------------------------
  alpha Z        PSCENC =         2.26997291
  Ewald energy   TEWEN  =      -135.42777035
  -Hartree energ DENC   =        -0.65300112
  -exchange      EXHF   =         0.00000000
  -V(xc)+E(xc)   XCENC  =        -8.87078640
  PAW double counting   =        88.12379961      -70.53051779
  entropy T*S    EENTRO =         0.00000000
  eigenvalues    EBANDS =        17.14150100
  atomic energy  EATOM  =       103.06077658
  Solvation  Ediel_sol  =         0.00000000
  ---------------------------------------------------
  free energy    TOTEN  =        -4.88602555 eV

  energy without entropy =       -4.88602555  energy(sigma->0) =       -4.88602555


--------------------------------------------------------------------------------------------------------




--------------------------------------- Iteration      1(   6)  ---------------------------------------


    POTLOK:  cpu time      0.0014: real time      0.0014
    SETDIJ:  cpu time      0.0006: real time      0.0006
     EDDAV:  cpu time      0.1226: real time      0.1226
 BZINTS: Fermi energy:    9.941451;    4.000000 electrons
         Band energy: 0.170548E+02;  BLOECHL correction:   -0.112721
       DOS:  cpu time      0.0066: real time      0.0066
    CHARGE:  cpu time      0.0061: real time      0.0061
    MIXING:  cpu time      0.0001: real time      0.0001
    --------------------------------------------
      LOOP:  cpu time      0.1374: real time      0.1374

 eigenvalue-minimisations  :  1542
 total energy-change (2. order) : 0.1268778E-01  (-0.4000385E-03)
 number of electron       4.0000010 magnetization 
 augmentation part       -0.2443210 magnetization 

 Broyden mixing:
  rms(total) = 0.16307E+00    rms(broyden)= 0.16307E+00
  rms(prec ) = 0.24019E+00
  weight for this iteration     100.00

 eigenvalues of (default mixing * dielectric matrix)
  average eigenvalue GAMMA=   2.2299
  2.2299

 Free energy of the ion-electron system (eV)
  ---------------------------------------------------
  alpha Z        PSCENC =         2.26997291
  Ewald energy   TEWEN  =      -135.42777035
  -Hartree energ DENC   =        -0.57405793
  -exchange      EXHF   =         0.00000000
  -V(xc)+E(xc)   XCENC  =        -8.85170757
  PAW double counting   =       179.78415685     -162.18952185
  entropy T*S    EENTRO =         0.00000000
  eigenvalues    EBANDS =        17.05481360
  atomic energy  EATOM  =       103.06077658
  Solvation  Ediel_sol  =         0.00000000
  ---------------------------------------------------
  free energy    TOTEN  =        -4.87333777 eV

  energy without entropy =       -4.87333777  energy(sigma->0) =       -4.87333777


--------------------------------------------------------------------------------------------------------




--------------------------------------- Iteration      1(   7)  ---------------------------------------


    POTLOK:  cpu time      0.0013: real time      0.0013
    SETDIJ:  cpu time      0.0006: real time      0.0006
     EDDAV:  cpu time      0.1215: real time      0.1215
 BZINTS: Fermi energy:    9.911907;    4.000000 electrons
         Band energy: 0.169505E+02;  BLOECHL correction:   -0.112433
       DOS:  cpu time      0.0063: real time      0.0063
    CHARGE:  cpu time      0.0061: real time      0.0061
    MIXING:  cpu time      0.0001: real time      0.0001
    --------------------------------------------
      LOOP:  cpu time      0.1359: real time      0.1359

 eigenvalue-minimisations  :  1518
 total energy-change (2. order) : 0.7270855E-02  (-0.7916510E-03)
 number of electron       4.0000011 magnetization 
 augmentation part       -0.2475117 magnetization 

 Broyden mixing:
  rms(total) = 0.13360E-01    rms(broyden)= 0.13360E-01
  rms(prec ) = 0.18019E-01
  weight for this iteration     100.00

 eigenvalues of (default mixing * dielectric matrix)
  average eigenvalue GAMMA=   2.4361
  2.4361  2.4361

 Free energy of the ion-electron system (eV)
  ---------------------------------------------------
  alpha Z        PSCENC =         2.26997291
  Ewald energy   TEWEN  =      -135.42777035
  -Hartree energ DENC   =        -0.49075649
  -exchange      EXHF   =         0.00000000
  -V(xc)+E(xc)   XCENC  =        -8.82102831
  PAW double counting   =       358.99884221     -341.40660897
  entropy T*S    EENTRO =         0.00000000
  eigenvalues    EBANDS =        16.95050552
  atomic energy  EATOM  =       103.06077658
  Solvation  Ediel_sol  =         0.00000000
  ---------------------------------------------------
  free energy    TOTEN  =        -4.86606691 eV

  energy without entropy =       -4.86606691  energy(sigma->0) =       -4.86606691


--------------------------------------------------------------------------------------------------------




--------------------------------------- Iteration      1(   8)  ---------------------------------------


    POTLOK:  cpu time      0.0013: real time      0.0013
    SETDIJ:  cpu time      0.0006: real time      0.0006
     EDDAV:  cpu time      0.1142: real time      0.1142
 BZINTS: Fermi energy:    9.912989;    4.000000 electrons
         Band energy: 0.169551E+02;  BLOECHL correction:   -0.112439
       DOS:  cpu time      0.0067: real time      0.0067
    --------------------------------------------
      LOOP:  cpu time      0.1229: real time      0.1229

 eigenvalue-minimisations  :  1308
 total energy-change (2. order) : 0.3159742E-04  (-0.2486794E-05)
 number of electron       4.0000011 magnetization 
 augmentation part       -0.2475117 magnetization 

 Free energy of the ion-electron system (eV)
  ---------------------------------------------------
  alpha Z        PSCENC =         2.26997291
  Ewald energy   TEWEN  =      -135.42777035
  -Hartree energ DENC   =        -0.49249843
  -exchange      EXHF   =         0.00000000
  -V(xc)+E(xc)   XCENC  =        -8.81712285
  PAW double counting   =       345.35665798     -327.77111485
  entropy T*S    EENTRO =         0.00000000
  eigenvalues    EBANDS =        16.95506369
  atomic energy  EATOM  =       103.06077658
  Solvation  Ediel_sol  =         0.00000000
  ---------------------------------------------------
  free energy    TOTEN  =        -4.86603531 eV

  energy without entropy =       -4.86603531  energy(sigma->0) =       -4.86603531


--------------------------------------------------------------------------------------------------------




 average (electrostatic) potential at core
  the test charge radii are     0.9892
  (the norm of the test charge is              1.0000)
       1 -80.2373



 E-fermi :   9.9130     XC(G=0): -11.0959     alpha+bet :-16.1732

 Fermi energy:         9.9129893079

 k-point     1 :       0.0000    0.0000    0.0000
  band No.  band energies     occupation 
      1      -4.3779      2.00000
      2      20.6957      0.00000
      3      20.6959      0.00000
      4      20.6959      0.00000
      5      21.7715      0.00000
      6      21.7716      0.00000

 k-point     2 :       0.0667    0.0000    0.0000
  band No.  band energies     occupation 
      1      -4.2503      2.00000
      2      18.7124      0.00000
      3      20.1235      0.00000
      4      20.1237      0.00000
      5      22.5323      0.00000
      6      22.5324      0.00000

 k-point     3 :       0.1333    0.0000    0.0000
  band No.  band energies     occupation 
      1      -3.8689      2.00000
      2      15.9441      0.00000
      3      19.3919      0.00000
      4      19.3920      0.00000
      5      22.9498      0.00000
      6      23.5822      0.00000

 k-point     4 :       0.2000    0.0000    0.0000
  band No.  band energies     occupation 
      1      -3.2350      2.00000
      2      13.1569      0.00000
      3      18.8221      0.00000
      4      18.8223      0.00000
      5      22.8678      0.00000
      6      23.8284      0.00000

 k-point     5 :       0.2667    0.0000    0.0000
  band No.  band energies     occupation 
      1      -2.3512      2.00000
      2      10.4969      0.36573
      3      18.4398      0.00000
      4      18.4400      0.00000
      5      22.7657      0.00000
      6      22.9768      0.00000

 k-point     6 :       0.3333    0.0000    0.0000
  band No.  band energies     occupation 
      1      -1.2208      2.00000
      2       8.0157      2.08193
      3      18.2392      0.00000
      4      18.2394      0.00000
      5      22.0032      0.00000
      6      22.0038      0.00000

 k-point     7 :       0.4000    0.0000    0.0000
  band No.  band energies     occupation 
      1       0.1479      2.00000
      2       5.7375      2.00000
      3      18.1765      0.00000
      4      18.1766      0.00000
      5      21.2293      0.00000
      6      21.2299      0.00000

 k-point     8 :       0.4667    0.0000    0.0000
  band No.  band energies     occupation 
      1       1.7177      2.00000
      2       3.7105      2.00000
      3      18.1863      0.00000
      4      18.1864      0.00000
      5      20.7925      0.00000
      6      20.7931      0.00000

 k-point     9 :       0.0667    0.0667    0.0000
  band No.  band energies     occupation 
      1      -4.2078      2.00000
      2      19.1688      0.00000
      3      19.1689      0.00000
      4      20.2940      0.00000
      5      20.8897      0.00000
      6      23.5606      0.00000

 k-point    10 :       0.1333    0.0667    0.0000
  band No.  band energies     occupation 
      1      -3.9112      2.00000
      2      16.9341      0.00000
      3      18.3458      0.00000
      4      19.8405      0.00000
      5      21.2841      0.00000
      6      24.2501      0.00000

 k-point    11 :       0.2000    0.0667    0.0000
  band No.  band energies     occupation 
      1      -3.3615      2.00000
      2      14.1637      0.00000
      3      17.7181      0.00000
      4      19.2204      0.00000
      5      21.9751      0.00000
      6      24.0734      0.00000

 k-point    12 :       0.2667    0.0667    0.0000
  band No.  band energies     occupation 
      1      -2.5610      2.00000
      2      11.4649     -0.12428
      3      17.2975      0.00000
      4      18.6993      0.00000
      5      21.4851      0.00000
      6      23.8373      0.00000

 k-point    13 :       0.3333    0.0667    0.0000
  band No.  band energies     occupation 
      1      -1.5130      2.00000
      2       8.9242      1.92871
      3      17.0894      0.00000
      4      18.2495      0.00000
      5      20.6672      0.00000
      6      23.6748      0.00000

 k-point    14 :       0.4000    0.0667    0.0000
  band No.  band energies     occupation 
      1      -0.2225      2.00000
      2       6.5782      2.00000
      3      17.0877      0.00000
      4      17.7808      0.00000
      5      20.1460      0.00000
      6      22.7322      0.00000

 k-point    15 :       0.4667    0.0667    0.0000
  band No.  band energies     occupation 
      1       1.2908      2.00000
      2       4.4568      2.00000
      3      17.2674      0.00000
      4      17.2812      0.00000
      5      20.0895      0.00000
      6      21.9671      0.00000

 k-point    16 :      -0.4667    0.0667    0.0000
  band No.  band energies     occupation 
      1       2.3164      2.00000
      2       3.2783      2.00000
      3      16.8062      0.00000
      4      17.6473      0.00000
      5      20.4069      0.00000
      6      21.4583      0.00000

 k-point    17 :      -0.4000    0.0667    0.0000
  band No.  band energies     occupation 
      1       0.7643      2.00000
      2       5.1353      2.00000
      3      16.4845      0.00000
      4      18.1500      0.00000
      5      21.0399      0.00000
      6      21.2681      0.00000

 k-point    18 :      -0.3333    0.0667    0.0000
  band No.  band energies     occupation 
      1      -0.6793      2.00000
      2       7.3365      2.00000
      3      16.3463      0.00000
      4      18.7047      0.00000
      5      21.4325      0.00000
      6      21.9117      0.00000

 k-point    19 :      -0.2667    0.0667    0.0000
  band No.  band energies     occupation 
      1      -1.8898      2.00000
      2       9.7504      1.12930
      3      16.4151      0.00000
      4      19.2472      0.00000
      5      21.9861      0.00000
      6      22.9718      0.00000

 k-point    20 :      -0.2000    0.0667    0.0000
  band No.  band energies     occupation 
      1      -2.8555      2.00000
      2      12.3489     -0.00468
      3      16.6930      0.00000
      4      19.7891      0.00000
      5      22.7654      0.00000
      6      23.4652      0.00000

 k-point    21 :      -0.1333    0.0667    0.0000
  band No.  band energies     occupation 
      1      -3.5727      2.00000
      2      15.0902      0.00000
      3      17.1843      0.00000
      4      20.3668      0.00000
      5      22.8583      0.00000
      6      23.4243      0.00000

 k-point    22 :      -0.0667    0.0667    0.0000
  band No.  band energies     occupation 
      1      -4.0383      2.00000
      2      17.7682      0.00000
      3      17.9536      0.00000
      4      20.7678      0.00000
      5      22.1261      0.00000
      6      23.0715      0.00000

 k-point    23 :       0.1333    0.1333    0.0000
  band No.  band energies     occupation 
      1      -3.6994      2.00000
      2      17.4500      0.00000
      3      17.4501      0.00000
      4      19.2239      0.00000
      5      19.2543      0.00000
      6      23.6081      0.00000

 k-point    24 :       0.2000    0.1333    0.0000
  band No.  band energies     occupation 
      1      -3.2346      2.00000
      2      15.3122      0.00000
      3      16.7514      0.00000
      4      18.5001      0.00000
      5      19.6782      0.00000
      6      22.2536      0.00000

 k-point    25 :       0.2667    0.1333    0.0000
  band No.  band energies     occupation 
      1      -2.5186      2.00000
      2      12.6343      0.00000
      3      16.2666      0.00000
      4      17.7621      0.00000
      5      19.6581      0.00000
      6      22.5281      0.00000

 k-point    26 :       0.3333    0.1333    0.0000
  band No.  band energies     occupation 
      1      -1.5538      2.00000
      2      10.0552      0.80951
      3      15.9994      0.00000
      4      16.9518      0.00000
      5      19.0903      0.00000
      6      23.9595      0.00000

 k-point    27 :       0.4000    0.1333    0.0000
  band No.  band energies     occupation 
      1      -0.3452      2.00000
      2       7.6509      2.00729
      3      15.9448      0.00000
      4      16.0787      0.00000
      5      18.8154      0.00000
      6      24.6950      0.00000

 k-point    28 :       0.4667    0.1333    0.0000
  band No.  band energies     occupation 
      1       1.0963      2.00000
      2       5.4555      2.00000
      3      15.2704      0.00000
      4      16.1093      0.00000
      5      18.9009      0.00000
      6      23.8656      0.00000

 k-point    29 :      -0.4667    0.1333    0.0000
  band No.  band energies     occupation 
      1       2.6496      2.00000
      2       3.5985      2.00000
      3      14.6146      0.00000
      4      16.4829      0.00000
      5      19.2791      0.00000
      6      23.2343      0.00000

 k-point    30 :      -0.4000    0.1333    0.0000
  band No.  band energies     occupation 
      1       1.6216      2.00000
      2       4.7777      2.00000
      3      14.1531      0.00000
      4      17.0536      0.00000
      5      19.9099      0.00000
      6      22.8069      0.00000

 k-point    31 :      -0.3333    0.1333    0.0000
  band No.  band energies     occupation 
      1       0.1103      2.00000
      2       6.8929      2.00000
      3      13.9060      0.00000
      4      17.8040      0.00000
      5      20.7716      0.00000
      6      22.6458      0.00000

 k-point    32 :      -0.2667    0.1333    0.0000
  band No.  band energies     occupation 
      1      -1.1780      2.00000
      2       9.2285      1.68359
      3      13.8816      0.00000
      4      18.6953      0.00000
      5      21.8574      0.00000
      6      22.7661      0.00000

 k-point    33 :      -0.2000    0.1333    0.0000
  band No.  band energies     occupation 
      1      -2.2248      2.00000
      2      11.7418     -0.09001
      3      14.0937      0.00000
      4      19.6417      0.00000
      5      23.0939      0.00000
      6      23.1338      0.00000

 k-point    34 :      -0.1333    0.1333    0.0000
  band No.  band energies     occupation 
      1      -3.0240      2.00000
      2      14.1909      0.00000
      3      14.7359      0.00000
      4      20.4264      0.00000
      5      23.1076      0.00000
      6      24.1597      0.00000

 k-point    35 :       0.2000    0.2000    0.0000
  band No.  band energies     occupation 
      1      -2.8549      2.00000
      2      15.9828      0.00000
      3      15.9829      0.00000
      4      17.5063      0.00000
      5      17.6971      0.00000
      6      20.5775      0.00000

 k-point    36 :       0.2667    0.2000    0.0000
  band No.  band energies     occupation 
      1      -2.2239      2.00000
      2      13.9378      0.00000
      3      15.4271      0.00000
      4      16.4457      0.00000
      5      17.9167      0.00000
      6      20.0894      0.00000

 k-point    37 :       0.3333    0.2000    0.0000
  band No.  band energies     occupation 
      1      -1.3437      2.00000
      2      11.3857     -0.12080
      3      15.0864      0.00000
      4      15.2700      0.00000
      5      17.8080      0.00000
      6      21.3077      0.00000

 k-point    38 :       0.4000    0.2000    0.0000
  band No.  band energies     occupation 
      1      -0.2182      2.00000
      2       8.9450      1.92327
      3      14.1413      0.00000
      4      14.9699      0.00000
      5      17.6796      0.00000
      6      23.1880      0.00000

 k-point    39 :       0.4667    0.2000    0.0000
  band No.  band energies     occupation 
      1       1.1439      2.00000
      2       6.6894      2.00000
      3      13.1611      0.00000
      4      15.0718      0.00000
      5      17.7691      0.00000
      6      25.1599      0.00000

 k-point    40 :      -0.4667    0.2000    0.0000
  band No.  band energies     occupation 
      1       2.7092      2.00000
      2       4.6735      2.00000
      3      12.3790     -0.01230
      4      15.3913      0.00000
      5      18.1155      0.00000
      6      25.3382      0.00000

 k-point    41 :      -0.4000    0.2000    0.0000
  band No.  band energies     occupation 
      1       2.7086      2.00000
      2       4.6725      2.00000
      3      11.8137     -0.08185
      4      15.9236      0.00000
      5      18.7031      0.00000
      6      24.8380      0.00000

 k-point    42 :      -0.3333    0.2000    0.0000
  band No.  band energies     occupation 
      1       1.1428      2.00000
      2       6.6834      2.00000
      3      11.4791     -0.10686
      4      16.6597      0.00000
      5      19.5206      0.00000
      6      24.5585      0.00000

 k-point    43 :      -0.2667    0.2000    0.0000
  band No.  band energies     occupation 
      1      -0.2195      2.00000
      2       8.9181      2.04602
      3      11.3933     -0.03828
      4      17.5783      0.00000
      5      20.5582      0.00000
      6      24.4914      0.00000

 k-point    44 :      -0.2000    0.2000    0.0000
  band No.  band energies     occupation 
      1      -1.3447      2.00000
      2      11.0679     -0.13339
      3      11.8162      0.00000
      4      18.6318      0.00000
      5      21.7734      0.00000
      6      24.6590      0.00000

 k-point    45 :       0.2667    0.2667    0.0000
  band No.  band energies     occupation 
      1      -1.6775      2.00000
      2      14.7960      0.00000
      3      14.7961      0.00000
      4      14.8947      0.00000
      5      16.3777      0.00000
      6      18.6865      0.00000

 k-point    46 :       0.3333    0.2667    0.0000
  band No.  band energies     occupation 
      1      -0.8830      2.00000
      2      12.7937      0.00000
      3      13.6090      0.00000
      4      14.3865      0.00000
      5      16.6561      0.00000
      6      18.8393      0.00000

 k-point    47 :       0.4000    0.2667    0.0000
  band No.  band energies     occupation 
      1       0.1570      2.00000
      2      10.4187      0.41882
      3      12.2874      0.00000
      4      14.1980      0.00000
      5      16.7292      0.00000
      6      20.4280      0.00000

 k-point    48 :       0.4667    0.2667    0.0000
  band No.  band energies     occupation 
      1       1.4364      2.00000
      2       8.1363      2.08994
      3      11.1720     -0.08396
      4      14.2306      0.00000
      5      16.8212      0.00000
      6      22.5302      0.00000

 k-point    49 :      -0.4667    0.2667    0.0000
  band No.  band energies     occupation 
      1       2.9381      2.00000
      2       6.0476      2.00000
      3      10.2800      0.54071
      4      14.4839      0.00000
      5      17.1166      0.00000
      6      24.8371      0.00000

 k-point    50 :      -0.4000    0.2667    0.0000
  band No.  band energies     occupation 
      1       3.9714      2.00000
      2       4.8620      2.00000
      3       9.6230      1.28054
      4      14.9552      0.00000
      5      17.6464      0.00000
      6      27.0893      0.00000

 k-point    51 :      -0.3333    0.2667    0.0000
  band No.  band energies     occupation 
      1       2.4127      2.00000
      2       6.6923      2.00000
      3       9.2220      1.70504
      4      15.6387      0.00000
      5      18.4061      0.00000
      6      26.7003      0.00000

 k-point    52 :      -0.2667    0.2667    0.0000
  band No.  band energies     occupation 
      1       0.9805      2.00000
      2       8.5314      2.00000
      3       9.3646      1.24771
      4      16.5236      0.00000
      5      19.3857      0.00000
      6      26.3075      0.00000

 k-point    53 :       0.3333    0.3333    0.0000
  band No.  band energies     occupation 
      1      -0.1746      2.00000
      2      11.8874     -0.06583
      3      13.9039      0.00000
      4      13.9040      0.00000
      5      15.3843      0.00000
      6      17.5839      0.00000

 k-point    54 :       0.4000    0.3333    0.0000
  band No.  band energies     occupation 
      1       0.7791      2.00000
      2      10.4563      0.38210
      3      12.1659      0.00000
      4      13.6425      0.00000
      5      15.8140      0.00000
      6      18.0296      0.00000

 k-point    55 :       0.4667    0.3333    0.0000
  band No.  band energies     occupation 
      1       1.9725      2.00000
      2       9.1551      2.01996
      3       9.9943      0.48630
      4      13.6032      0.00000
[...]
  185        fornl                                 0.002269                            1   3
  186          phase                                 0.000123                        120   4
  187          m_sumb_d                              0.000003                          2   4
  188        fordep                                0.000258                            1   3
  189          setdij_                               0.000256                          6   4
  190            m_sumb_d                              0.000007                        6   5
  191        setdij_                               0.000838                           20   3
  192          m_sumb_d                              0.000033                         20   4
  193        set_dd_magatom                        0.000000                            1   3
  194        set_dd_paw                            0.000560                            1   3
  195          m_sumb_d                              0.000557                          7   4
  196        strkin                                0.000273                            1   3
  197          m_sumb_d                              0.000002                          1   4
  198        strelo                                0.000092                            1   3
  199          m_sumb_d                              0.000001                          2   4
  200        strenl                                0.039350                            1   3
  201          spher                                 0.034878                         19   4
  202          phase                                 0.001090                       1080   4
  203          proj1                                 0.002013                       3240   4
  204            crexp_mul_wave                        0.000531                     3240   5
  205          m_sumb_d                              0.000057                          1   4
  206        fft3d_mpi                             0.000352                           11   3
  207          fftbrc_mpi                            0.000330                         11   4
  208            fftbas_plan_mpi                       0.000329                       11   5
  209              dfftw_execute                         0.000079                     33   6
  210              map_forward                           0.000053                     10   6
  211                map_gather                            0.000011                    5   7
  212                m_alltoallv_z                         0.000028                    5   7
  213                map_scatter                           0.000011                    5   7
  214              map_backward                          0.000054                     12   6
  215                map_gather                            0.000010                    6   7
  216                m_alltoallv_z                         0.000027                    6   7
  217                map_scatter                           0.000010                    6   7
  218        ggaall_grid                           0.000400                            1   3
  219        m_sumb_d                              0.000003                            5   3
  220        forhar                                0.000136                            2   3
  221          m_sumb_d                              0.000002                          2   4
  222        strehar                               0.000100                            1   3
  223          m_sumb_d                              0.000001                          1   4
  224        chggra                                0.000226                            1   3
  225          fft3d_mpi                             0.000093                          3   4
  226            fftbrc_mpi                            0.000089                        3   5
  227              fftbas_plan_mpi                       0.000087                      3   6
  228                dfftw_execute                         0.000022                    9   7
  229                map_backward                          0.000009                    2   7
  230                  map_gather                            0.000002                  1   8
  231                  m_alltoallv_z                         0.000005                  1   8
  232                  map_scatter                           0.000002                  1   8
  233                map_forward                           0.000019                    4   7
  234                  map_gather                            0.000004                  2   8
  235                  m_alltoallv_z                         0.000010                  2   8
  236                  map_scatter                           0.000005                  2   8
  237          m_sumb_d                              0.000001                          2   4
  238          pothar                                0.000014                          1   4
  239            m_sumb_d                              0.000001                        1   5
  240        brmix                                 0.000092                            1   3
  241          m_sumb_d                              0.000002                          6   4
  242          brpre                                 0.000002                          1   4
  243          setg0                                 0.000026                          1   4
  244          broyd                                 0.000041                          1   4
  245            m_sumb_d                              0.000004                       10   5
  246            brget                                 0.000008                       24   5
  247            brsav                                 0.000000                        8   5
  248        m_bcast_d                             0.000003                            2   3
  249      potlok                                0.001141                              1   2
  250        fft3d_mpi                             0.000402                           13   3
  251          fftbrc_mpi                            0.000372                         13   4
  252            fftbas_plan_mpi                       0.000370                       13   5
  253              dfftw_execute                         0.000088                     39   6
  254              map_forward                           0.000066                     14   6
  255                map_gather                            0.000010                    8   7
  256                m_alltoallv_z                         0.000032                    8   7
  257                map_scatter                           0.000017                    8   7
  258              map_backward                          0.000053                     12   6
  259                map_gather                            0.000010                    6   7
  260                m_alltoallv_z                         0.000027                    6   7
  261                map_scatter                           0.000012                    6   7
  262        ggaall_grid                           0.000398                            1   3
  263        m_sumb_d                              0.000003                            5   3
  264        pothar                                0.000013                            1   3
  265          m_sumb_d                              0.000000                          1   4
  266        m_bcast_d                             0.000004                            1   3
  267      potlok_metagga                        0.000001                              1   2
  268      set_dd_magatom                        0.000000                              1   2
  269      set_dd_paw                            0.000546                              1   2
  270        m_sumb_d                              0.000540                            7   3
  271      densta                                0.028678                              1   2
 
 Flat profile
 ============
 
             routine name                   CPU           calls
 ---------------------------------------------------------------
 fft3d                                   0.566324       19940
 total_time                              0.560485           1
 lapack                                  0.227653        3208
 densta                                  0.080729           9
 eddav                                   0.074254           8
 m_alltoall_d                            0.049290       72048
 spher                                   0.037076          20
 redis_pw                                0.032963       28152
 hamiltmu                                0.030208        3208
 orth1                                   0.020210        8784
 m_sumb_d                                0.019854       10739
 m_bcast_z                               0.017734        3928
 vhamil                                  0.011814        9624
 fftwav                                  0.009379       10316
 sphpro_fast                             0.008721           2
 redis_proj                              0.007789       35016
 ggemm                                   0.007187        3208
 newband                                 0.005996        4168
 proj1                                   0.005519       10344
 inisym                                  0.004975           1
 eccp                                    0.004950        2880
 m_bcast_d                               0.004902        6426
 gemm                                    0.004786        9624
 vnlac0                                  0.003928        9624
 kinhamil                                0.003500        9624
 fftext_mpi                              0.003154        9624
 w1_copy                                 0.003132       28872
 elmin                                   0.002625           1
 ggaall_grid                             0.002477           6
 phase                                   0.002464        2281
 overl                                   0.002436       16488
 fft3d_mpi                               0.002231        9714
 fornl                                   0.002143           1
 fftwav_mpi                              0.002092       10316
 w1_projall                              0.001991        2248
 work_mul_crexp                          0.001740        9624
 potlok                                  0.001688           5
 crexp_mul_wave                          0.001600       10344
 overl1                                  0.001596        9624
 setdij_                                 0.001414          32
 apply_precond                           0.001377        6744
 setup_precond                           0.001313        2880
 strenl                                  0.001311           1
 fftbas_plan_mpi                         0.001256          90
 pw_charge                               0.000712         692
 dfftw_execute                           0.000643         270
 truncate_high_frequency_w1              0.000607       12504
 m_alltoallv_z                           0.000582          99
 force_and_stress                        0.000458           1
 set_charge                              0.000402           4
 augmentation_charge                     0.000312           4
 fewald                                  0.000301           1
 soft_charge                             0.000296           4
 strkin                                  0.000271           1
 orthch                                  0.000254           1
 lincom                                  0.000216         120
 map_scatter                             0.000191          99
 map_gather                              0.000173          99
 forhar                                  0.000134           2
 chggra                                  0.000118           1
 setg0                                   0.000108           5
 broyd                                   0.000102           4
 strehar                                 0.000099           1
 depsum                                  0.000092           4
 strelo                                  0.000091           1
 brmix                                   0.000083           4
 choleski                                0.000082         120
 proj                                    0.000081         120
 pothar                                  0.000078           6
 map_forward                             0.000052          90
 forloc                                  0.000051           1
 proall                                  0.000042           1
 map_backward                            0.000033          90
 set_dd_paw                              0.000029           6
 brgrid                                  0.000024           1
 fftbrc_mpi                              0.000022          90
 stufak                                  0.000020           1
 rsp                                     0.000018           1
 crpa_reader                             0.000017           1
 brget                                   0.000015          60
 posmap                                  0.000011           2
 brpre                                   0.000009           4
 brsav                                   0.000004          26
 rcp                                     0.000004           1
 fft_gq                                  0.000002           4
 fordep                                  0.000002           1
 potlok_metagga                          0.000001           5
 set_dd_magatom                          0.000001           6
 rotate_active_occupied_orbital          0.000000           1
 redis_pw_over_bands                     0.000000           1
 vectorpot                               0.000000           5
 ---------------------------------------------------------------
  summed up times    1.8451049327850342     
 
 Accumulative profile
 ====================
 
             routine name                   CPU           calls
 ---------------------------------------------------------------
 total_time                              1.845105           1
 elmin                                   1.181372           1
 eddav                                   1.100538           8
 fft3d                                   0.566324       19940
 hamiltmu                                0.331580        3208
 fftwav_mpi                              0.308966       10316
 fftwav                                  0.306874       10316
 kinhamil                                0.277510        9624
 fft3d_mpi                               0.274011        9714
 fftext_mpi                              0.274010        9624
 lapack                                  0.227653        3208
 newband                                 0.112546        4168
 densta                                  0.080729           9
 redis_pw                                0.062809       28152
 force_and_stress                        0.051320           1
 m_alltoall_d                            0.049290       72048
 strenl                                  0.039350           1
 spher                                   0.037076          20
 redis_proj                              0.027232       35016
 set_charge                              0.024006           4
 soft_charge                             0.023014           4
 orth1                                   0.020210        8784
 m_sumb_d                                0.019854       10739
 m_bcast_z                               0.017734        3928
 vhamil                                  0.011814        9624
 vnlac0                                  0.010453        9624
 sphpro_fast                             0.008795           2
 ggemm                                   0.007187        3208
 proj1                                   0.007118       10344
 w1_projall                              0.006847        2248
 potlok                                  0.006102           5
 inisym                                  0.004986           1
 eccp                                    0.004950        2880
 m_bcast_d                               0.004902        6426
 gemm                                    0.004786        9624
 set_dd_paw                              0.003367           6
 w1_copy                                 0.003132       28872
 fftbrc_mpi                              0.002952          90
 fftbas_plan_mpi                         0.002930          90
 ggaall_grid                             0.002477           6
 phase                                   0.002464        2281
 overl                                   0.002436       16488
 fornl                                   0.002269           1
 orthch                                  0.002124           1
 work_mul_crexp                          0.001740        9624
 crexp_mul_wave                          0.001600       10344
 overl1                                  0.001596        9624
 setdij_                                 0.001472          32
 apply_precond                           0.001377        6744
 setup_precond                           0.001313        2880
 pw_charge                               0.000712         692
 dfftw_execute                           0.000643         270
 truncate_high_frequency_w1              0.000607       12504
 map_forward                             0.000595          90
 m_alltoallv_z                           0.000582          99
 proall                                  0.000493           1
 augmentation_charge                     0.000469           4
 map_backward                            0.000436          90
 brmix                                   0.000350           4
 proj                                    0.000329         120
 fewald                                  0.000325           1
 strkin                                  0.000273           1
 fordep                                  0.000258           1
 chggra                                  0.000226           1
 lincom                                  0.000216         120
 map_scatter                             0.000191          99
 map_gather                              0.000173          99
 forhar                                  0.000136           2
 broyd                                   0.000136           4
 fft_gq                                  0.000127           4
 setg0                                   0.000108           5
 strehar                                 0.000100           1
 depsum                                  0.000098           4
 strelo                                  0.000092           1
 choleski                                0.000082         120
 pothar                                  0.000081           6
 forloc                                  0.000052           1
 brgrid                                  0.000024           1
 stufak                                  0.000020           1
 rsp                                     0.000018           1
 crpa_reader                             0.000017           1
 brget                                   0.000015          60
 posmap                                  0.000011           2
 brpre                                   0.000009           4
 brsav                                   0.000004          26
 rcp                                     0.000004           1
 potlok_metagga                          0.000001           5
 set_dd_magatom                          0.000001           6
 rotate_active_occupied_orbital          0.000000           1
 redis_pw_over_bands                     0.000000           1
 vectorpot                               0.000000           5
 ---------------------------------------------------------------
 
Profiling took   0.045255  0.020714  0.002249  0.002217 seconds
Profiling took   0.022224 seconds
