PROCAR lm decomposed
# of k-points:  120         # of bands:    6         # of ions:    1

 k-point     1 :    0.00000000 0.00000000 0.00000000     weight = 0.00029630

band     1 # energy   -4.37788427 # occ.  2.00000000

ion      s     py     pz     px    dxy    dyz    dz2    dxz  x2-y2    tot
    1  0.384  0.000  0.000  0.000  0.000  0.000  0.000  0.000  0.000  0.384

band     2 # energy   20.69569142 # occ.  0.00000000

ion      s     py     pz     px    dxy    dyz    dz2    dxz  x2-y2    tot
    1  0.000  0.224  0.225  0.229  0.000  0.000  0.000  0.000  0.000  0.677

band     3 # energy   20.69587166 # occ.  0.00000000

ion      s     py     pz     px    dxy    dyz    dz2    dxz  x2-y2    tot
    1  0.000  0.318  0.356  0.004  0.000  0.000  0.000  0.000  0.000  0.677

band     4 # energy   20.69587369 # occ.  0.00000000

ion      s     py     pz     px    dxy    dyz    dz2    dxz  x2-y2    tot
    1  0.000  0.136  0.097  0.445  0.000  0.000  0.000  0.000  0.000  0.677

band     5 # energy   21.77154588 # occ.  0.00000000

ion      s     py     pz     px    dxy    dyz    dz2    dxz  x2-y2    tot
    1  0.000  0.000  0.000  0.000  0.000  0.000  0.000  0.000  0.000  0.000

band     6 # energy   21.77164691 # occ.  0.00000000

ion      s     py     pz     px    dxy    dyz    dz2    dxz  x2-y2    tot
    1  0.000  0.000  0.000  0.000  0.000  0.000  0.000  0.000  0.000  0.000


 k-point     2 :    0.06666667 0.00000000 0.00000000     weight = 0.00237037

band     1 # energy   -4.25030303 # occ.  2.00000000

ion      s     py     pz     px    dxy    dyz    dz2    dxz  x2-y2    tot
    1  0.382  0.001  0.001  0.001  0.000  0.000  0.000  0.000  0.000  0.385

band     2 # energy   18.71237810 # occ.  0.00000000

ion      s     py     pz     px    dxy    dyz    dz2    dxz  x2-y2    tot
    1  0.015  0.131  0.131  0.131  0.000  0.000  0.000  0.000  0.000  0.407

band     3 # energy   20.12352030 # occ.  0.00000000

ion      s     py     pz     px    dxy    dyz    dz2    dxz  x2-y2    tot
    1  0.000  0.085  0.086  0.342  0.000  0.000  0.000  0.000  0.000  0.513

band     4 # energy   20.12368852 # occ.  0.00000000

ion      s     py     pz     px    dxy    dyz    dz2    dxz  x2-y2    tot
    1  0.000  0.257  0.256  0.000  0.000  0.000  0.000  0.000  0.000  0.513

band     5 # energy   22.53229406 # occ.  0.00000000

ion      s     py     pz     px    dxy    dyz    dz2    dxz  x2-y2    tot
    1  0.000  0.030  0.026  0.115  0.000  0.000  0.000  0.000  0.000  0.171

band     6 # energy   22.53243330 # occ.  0.00000000

ion      s     py     pz     px    dxy    dyz    dz2    dxz  x2-y2    tot
    1  0.000  0.084  0.087  0.000  0.000  0.000  0.000  0.000  0.000  0.171


 k-point     3 :    0.13333333 0.00000000 0.00000000     weight = 0.00237037

band     1 # energy   -3.86889432 # occ.  2.00000000

ion      s     py     pz     px    dxy    dyz    dz2    dxz  x2-y2    tot
    1  0.373  0.004  0.004  0.004  0.000  0.000  0.000  0.000  0.000  0.386

band     2 # energy   15.94412070 # occ.  0.00000000

ion      s     py     pz     px    dxy    dyz    dz2    dxz  x2-y2    tot
    1  0.039  0.109  0.109  0.109  0.000  0.000  0.000  0.000  0.000  0.366

band     3 # energy   19.39187704 # occ.  0.00000000

ion      s     py     pz     px    dxy    dyz    dz2    dxz  x2-y2    tot
    1  0.000  0.079  0.078  0.314  0.000  0.000  0.000  0.000  0.000  0.471

band     4 # energy   19.39204750 # occ.  0.00000000

ion      s     py     pz     px    dxy    dyz    dz2    dxz  x2-y2    tot
    1  0.000  0.236  0.236  0.000  0.000  0.000  0.000  0.000  0.000  0.471

band     5 # energy   22.94977550 # occ.  0.00000000

ion      s     py     pz     px    dxy    dyz    dz2    dxz  x2-y2    tot
    1  0.058  0.069  0.069  0.069  0.000  0.000  0.000  0.000  0.000  0.264

band     6 # energy   23.58220670 # occ.  0.00000000

ion      s     py     pz     px    dxy    dyz    dz2    dxz  x2-y2    tot
    1  0.000  0.139  0.009  0.080  0.000  0.000  0.000  0.000  0.000  0.228


 k-point     4 :    0.20000000 0.00000000 0.00000000     weight = 0.00237037

band     1 # energy   -3.23498117 # occ.  2.00000000

ion      s     py     pz     px    dxy    dyz    dz2    dxz  x2-y2    tot
    1  0.359  0.009  0.009  0.009  0.000  0.000  0.000  0.000  0.000  0.387

band     2 # energy   13.15693836 # occ.  0.00000000

ion      s     py     pz     px    dxy    dyz    dz2    dxz  x2-y2    tot
    1  0.066  0.098  0.098  0.098  0.000  0.000  0.000  0.000  0.000  0.359

band     3 # energy   18.82212949 # occ.  0.00000000

ion      s     py     pz     px    dxy    dyz    dz2    dxz  x2-y2    tot
    1  0.000  0.079  0.079  0.317  0.000  0.000  0.000  0.000  0.000  0.475

band     4 # energy   18.82230355 # occ.  0.00000000

ion      s     py     pz     px    dxy    dyz    dz2    dxz  x2-y2    tot
    1  0.000  0.238  0.237  0.000  0.000  0.000  0.000  0.000  0.000  0.475

band     5 # energy   22.86782551 # occ.  0.00000000

ion      s     py     pz     px    dxy    dyz    dz2    dxz  x2-y2    tot
    1  0.109  0.047  0.047  0.047  0.000  0.000  0.000  0.000  0.000  0.248

band     6 # energy   23.82842397 # occ.  0.00000000

ion      s     py     pz     px    dxy    dyz    dz2    dxz  x2-y2    tot
    1  0.000  0.025  0.128  0.040  0.000  0.000  0.000  0.000  0.000  0.193


 k-point     5 :    0.26666667 0.00000000 0.00000000     weight = 0.00237037

band     1 # energy   -2.35121840 # occ.  2.00000000

ion      s     py     pz     px    dxy    dyz    dz2    dxz  x2-y2    tot
    1  0.341  0.016  0.016  0.016  0.000  0.000  0.000  0.000  0.000  0.389

band     2 # energy   10.49694187 # occ.  0.36572974

ion      s     py     pz     px    dxy    dyz    dz2    dxz  x2-y2    tot
    1  0.094  0.089  0.089  0.089  0.000  0.000  0.000  0.000  0.000  0.361

band     3 # energy   18.43984305 # occ.  0.00000000

ion      s     py     pz     px    dxy    dyz    dz2    dxz  x2-y2    tot
    1  0.000  0.082  0.083  0.330  0.000  0.000  0.000  0.000  0.000  0.495

band     4 # energy   18.44001687 # occ.  0.00000000

ion      s     py     pz     px    dxy    dyz    dz2    dxz  x2-y2    tot
    1  0.000  0.248  0.248  0.000  0.000  0.000  0.000  0.000  0.000  0.496

band     5 # energy   22.76568581 # occ.  0.00000000

ion      s     py     pz     px    dxy    dyz    dz2    dxz  x2-y2    tot
    1  0.155  0.027  0.028  0.027  0.000  0.000  0.000  0.000  0.000  0.237

band     6 # energy   22.97679781 # occ.  0.00000000

ion      s     py     pz     px    dxy    dyz    dz2    dxz  x2-y2    tot
    1  0.000  0.015  0.029  0.085  0.000  0.000  0.000  0.000  0.000  0.128


 k-point     6 :    0.33333333 0.00000000 0.00000000     weight = 0.00237037

band     1 # energy   -1.22075014 # occ.  2.00000000

ion      s     py     pz     px    dxy    dyz    dz2    dxz  x2-y2    tot
    1  0.322  0.024  0.024  0.024  0.000  0.000  0.000  0.000  0.000  0.393

band     2 # energy    8.01574254 # occ.  2.08193025

ion      s     py     pz     px    dxy    dyz    dz2    dxz  x2-y2    tot
    1  0.122  0.081  0.081  0.081  0.000  0.000  0.000  0.000  0.000  0.366

band     3 # energy   18.23923466 # occ.  0.00000000

ion      s     py     pz     px    dxy    dyz    dz2    dxz  x2-y2    tot
    1  0.000  0.088  0.089  0.353  0.000  0.000  0.000  0.000  0.000  0.530

band     4 # energy   18.23938689 # occ.  0.00000000

ion      s     py     pz     px    dxy    dyz    dz2    dxz  x2-y2    tot
    1  0.000  0.265  0.265  0.000  0.000  0.000  0.000  0.000  0.000  0.530

band     5 # energy   22.00320553 # occ.  0.00000000

ion      s     py     pz     px    dxy    dyz    dz2    dxz  x2-y2    tot
    1  0.000  0.014  0.014  0.056  0.000  0.000  0.000  0.000  0.000  0.084

band     6 # energy   22.00376871 # occ.  0.00000000

ion      s     py     pz     px    dxy    dyz    dz2    dxz  x2-y2    tot
    1  0.000  0.042  0.042  0.000  0.000  0.000  0.000  0.000  0.000  0.084


 k-point     7 :    0.40000000 0.00000000 0.00000000     weight = 0.00237037

band     1 # energy    0.14787887 # occ.  2.00000000

ion      s     py     pz     px    dxy    dyz    dz2    dxz  x2-y2    tot
    1  0.305  0.031  0.031  0.031  0.000  0.000  0.000  0.000  0.000  0.397

band     2 # energy    5.73747726 # occ.  2.00000000

ion      s     py     pz     px    dxy    dyz    dz2    dxz  x2-y2    tot
    1  0.146  0.075  0.075  0.075  0.000  0.000  0.000  0.000  0.000  0.369

band     3 # energy   18.17650150 # occ.  0.00000000

ion      s     py     pz     px    dxy    dyz    dz2    dxz  x2-y2    tot
    1  0.000  0.095  0.096  0.382  0.000  0.000  0.000  0.000  0.000  0.574

band     4 # energy   18.17663637 # occ.  0.00000000

ion      s     py     pz     px    dxy    dyz    dz2    dxz  x2-y2    tot
    1  0.000  0.287  0.287  0.000  0.000  0.000  0.000  0.000  0.000  0.574

band     5 # energy   21.22934432 # occ.  0.00000000

ion      s     py     pz     px    dxy    dyz    dz2    dxz  x2-y2    tot
    1  0.000  0.007  0.007  0.029  0.000  0.000  0.000  0.000  0.000  0.043

band     6 # energy   21.22990454 # occ.  0.00000000

ion      s     py     pz     px    dxy    dyz    dz2    dxz  x2-y2    tot
    1  0.000  0.021  0.021  0.000  0.000  0.000  0.000  0.000  0.000  0.043


 k-point     8 :    0.46666667 0.00000000 0.00000000     weight = 0.00237037

band     1 # energy    1.71766316 # occ.  2.00000000

ion      s     py     pz     px    dxy    dyz    dz2    dxz  x2-y2    tot
    1  0.327  0.028  0.028  0.028  0.000  0.000  0.000  0.000  0.000  0.413

band     2 # energy    3.71053175 # occ.  2.00000000

ion      s     py     pz     px    dxy    dyz    dz2    dxz  x2-y2    tot
    1  0.127  0.077  0.077  0.077  0.000  0.000  0.000  0.000  0.000  0.358

band     3 # energy   18.18628843 # occ.  0.00000000

ion      s     py     pz     px    dxy    dyz    dz2    dxz  x2-y2    tot
    1  0.000  0.102  0.102  0.409  0.000  0.000  0.000  0.000  0.000  0.613

band     4 # energy   18.18640717 # occ.  0.00000000

ion      s     py     pz     px    dxy    dyz    dz2    dxz  x2-y2    tot
    1  0.000  0.307  0.306  0.000  0.000  0.000  0.000  0.000  0.000  0.613

band     5 # energy   20.79252521 # occ.  0.00000000

ion      s     py     pz     px    dxy    dyz    dz2    dxz  x2-y2    tot
    1  0.000  0.001  0.001  0.004  0.000  0.000  0.000  0.000  0.000  0.006

band     6 # energy   20.79309396 # occ.  0.00000000

ion      s     py     pz     px    dxy    dyz    dz2    dxz  x2-y2    tot
    1  0.000  0.003  0.003  0.000  0.000  0.000  0.000  0.000  0.000  0.006


 k-point     9 :    0.06666667 0.06666667 0.00000000     weight = 0.00177778

band     1 # energy   -4.20779597 # occ.  2.00000000

ion      s     py     pz     px    dxy    dyz    dz2    dxz  x2-y2    tot
    1  0.381  0.000  0.004  0.000  0.000  0.000  0.000  0.000  0.000  0.385

band     2 # energy   19.16882895 # occ.  0.00000000

ion      s     py     pz     px    dxy    dyz    dz2    dxz  x2-y2    tot
    1  0.000  0.222  0.000  0.222  0.000  0.000  0.000  0.000  0.000  0.444

band     3 # energy   19.16894149 # occ.  0.00000000

ion      s     py     pz     px    dxy    dyz    dz2    dxz  x2-y2    tot
    1  0.000  0.222  0.000  0.222  0.000  0.000  0.000  0.000  0.000  0.444

band     4 # energy   20.29400168 # occ.  0.00000000

ion      s     py     pz     px    dxy    dyz    dz2    dxz  x2-y2    tot
    1  0.037  0.000  0.641  0.000  0.000  0.000  0.000  0.000  0.000  0.678

band     5 # energy   20.88965861 # occ.  0.00000000

ion      s     py     pz     px    dxy    dyz    dz2    dxz  x2-y2    tot
    1  0.000  0.000  0.000  0.000  0.000  0.000  0.000  0.000  0.000  0.000

band     6 # energy   23.56063229 # occ.  0.00000000

ion      s     py     pz     px    dxy    dyz    dz2    dxz  x2-y2    tot
    1  0.000  0.016  0.000  0.222  0.000  0.000  0.000  0.000  0.000  0.238


 k-point    10 :    0.13333333 0.06666667 0.00000000     weight = 0.00711111

band     1 # energy   -3.91118104 # occ.  2.00000000

ion      s     py     pz     px    dxy    dyz    dz2    dxz  x2-y2    tot
    1  0.374  0.001  0.010  0.001  0.000  0.000  0.000  0.000  0.000  0.386

band     2 # energy   16.93406395 # occ.  0.00000000

ion      s     py     pz     px    dxy    dyz    dz2    dxz  x2-y2    tot
    1  0.025  0.141  0.069  0.141  0.000  0.000  0.000  0.000  0.000  0.377

band     3 # energy   18.34576660 # occ.  0.00000000

ion      s     py     pz     px    dxy    dyz    dz2    dxz  x2-y2    tot
    1  0.000  0.216  0.000  0.216  0.000  0.000  0.000  0.000  0.000  0.432

band     4 # energy   19.84051530 # occ.  0.00000000

ion      s     py     pz     px    dxy    dyz    dz2    dxz  x2-y2    tot
    1  0.041  0.015  0.424  0.015  0.000  0.000  0.000  0.000  0.000  0.496

band     5 # energy   21.28405678 # occ.  0.00000000

ion      s     py     pz     px    dxy    dyz    dz2    dxz  x2-y2    tot
    1  0.003  0.069  0.106  0.069  0.000  0.000  0.000  0.000  0.000  0.248

band     6 # energy   24.25014250 # occ.  0.00000000

ion      s     py     pz     px    dxy    dyz    dz2    dxz  x2-y2    tot
    1  0.022  0.096  0.010  0.098  0.000  0.000  0.000  0.000  0.000  0.226


 k-point    11 :    0.20000000 0.06666667 0.00000000     weight = 0.00711111

band     1 # energy   -3.36146674 # occ.  2.00000000

ion      s     py     pz     px    dxy    dyz    dz2    dxz  x2-y2    tot
    1  0.362  0.004  0.017  0.004  0.000  0.000  0.000  0.000  0.000  0.387

band     2 # energy   14.16367478 # occ.  0.00000000

ion      s     py     pz     px    dxy    dyz    dz2    dxz  x2-y2    tot
    1  0.053  0.116  0.073  0.116  0.000  0.000  0.000  0.000  0.000  0.358

band     3 # energy   17.71809607 # occ.  0.00000000

ion      s     py     pz     px    dxy    dyz    dz2    dxz  x2-y2    tot
    1  0.000  0.219  0.000  0.219  0.000  0.000  0.000  0.000  0.000  0.437

band     4 # energy   19.22038690 # occ.  0.00000000

ion      s     py     pz     px    dxy    dyz    dz2    dxz  x2-y2    tot
    1  0.050  0.023  0.386  0.023  0.000  0.000  0.000  0.000  0.000  0.482

band     5 # energy   21.97507840 # occ.  0.00000000

ion      s     py     pz     px    dxy    dyz    dz2    dxz  x2-y2    tot
    1  0.000  0.077  0.114  0.077  0.000  0.000  0.000  0.000  0.000  0.268

band     6 # energy   24.07338794 # occ.  0.00000000

ion      s     py     pz     px    dxy    dyz    dz2    dxz  x2-y2    tot
    1  0.027  0.078  0.004  0.078  0.000  0.000  0.000  0.000  0.000  0.188


 k-point    12 :    0.26666667 0.06666667 0.00000000     weight = 0.00711111

band     1 # energy   -2.56103880 # occ.  2.00000000

ion      s     py     pz     px    dxy    dyz    dz2    dxz  x2-y2    tot
    1  0.345  0.009  0.025  0.009  0.000  0.000  0.000  0.000  0.000  0.389

band     2 # energy   11.46487855 # occ. -0.12427707

ion      s     py     pz     px    dxy    dyz    dz2    dxz  x2-y2    tot
    1  0.082  0.104  0.070  0.104  0.000  0.000  0.000  0.000  0.000  0.359

band     3 # energy   17.29750763 # occ.  0.00000000

ion      s     py     pz     px    dxy    dyz    dz2    dxz  x2-y2    tot
    1  0.000  0.224  0.000  0.224  0.000  0.000  0.000  0.000  0.000  0.448

band     4 # energy   18.69926385 # occ.  0.00000000

ion      s     py     pz     px    dxy    dyz    dz2    dxz  x2-y2    tot
    1  0.057  0.036  0.385  0.036  0.000  0.000  0.000  0.000  0.000  0.514

band     5 # energy   21.48511524 # occ.  0.00000000

ion      s     py     pz     px    dxy    dyz    dz2    dxz  x2-y2    tot
    1  0.002  0.024  0.065  0.024  0.000  0.000  0.000  0.000  0.000  0.115

band     6 # energy   23.83727394 # occ.  0.00000000

ion      s     py     pz     px    dxy    dyz    dz2    dxz  x2-y2    tot
    1  0.070  0.099  0.004  0.099  0.000  0.000  0.000  0.000  0.000  0.272


 k-point    13 :    0.33333333 0.06666667 0.00000000     weight = 0.00711111

band     1 # energy   -1.51301888 # occ.  2.00000000

ion      s     py     pz     px    dxy    dyz    dz2    dxz  x2-y2    tot
    1  0.326  0.015  0.035  0.015  0.000  0.000  0.000  0.000  0.000  0.391

band     2 # energy    8.92419173 # occ.  1.92871471

ion      s     py     pz     px    dxy    dyz    dz2    dxz  x2-y2    tot
    1  0.111  0.095  0.064  0.095  0.000  0.000  0.000  0.000  0.000  0.365

band     3 # energy   17.08941339 # occ.  0.00000000

ion      s     py     pz     px    dxy    dyz    dz2    dxz  x2-y2    tot
    1  0.000  0.231  0.000  0.231  0.000  0.000  0.000  0.000  0.000  0.461

band     4 # energy   18.24947436 # occ.  0.00000000

ion      s     py     pz     px    dxy    dyz    dz2    dxz  x2-y2    tot
    1  0.060  0.052  0.395  0.052  0.000  0.000  0.000  0.000  0.000  0.558

band     5 # energy   20.66715641 # occ.  0.00000000

ion      s     py     pz     px    dxy    dyz    dz2    dxz  x2-y2    tot
    1  0.005  0.004  0.019  0.004  0.000  0.000  0.000  0.000  0.000  0.033

band     6 # energy   23.67478817 # occ.  0.00000000

ion      s     py     pz     px    dxy    dyz    dz2    dxz  x2-y2    tot
    1  0.000  0.078  0.000  0.075  0.000  0.000  0.000  0.000  0.000  0.154


 k-point    14 :    0.40000000 0.06666667 0.00000000     weight = 0.00711111

band     1 # energy   -0.22252861 # occ.  2.00000000

ion      s     py     pz     px    dxy    dyz    dz2    dxz  x2-y2    tot
    1  0.308  0.022  0.045  0.022  0.000  0.000  0.000  0.000  0.000  0.396

band     2 # energy    6.57823360 # occ.  2.00000000

ion      s     py     pz     px    dxy    dyz    dz2    dxz  x2-y2    tot
    1  0.138  0.086  0.058  0.086  0.000  0.000  0.000  0.000  0.000  0.369

band     3 # energy   17.08770814 # occ.  0.00000000

ion      s     py     pz     px    dxy    dyz    dz2    dxz  x2-y2    tot
    1  0.000  0.239  0.000  0.239  0.000  0.000  0.000  0.000  0.000  0.478

band     4 # energy   17.78077950 # occ.  0.00000000

ion      s     py     pz     px    dxy    dyz    dz2    dxz  x2-y2    tot
    1  0.056  0.063  0.387  0.063  0.000  0.000  0.000  0.000  0.000  0.569

band     5 # energy   20.14598920 # occ.  0.00000000

ion      s     py     pz     px    dxy    dyz    dz2    dxz  x2-y2    tot
    1  0.012  0.000  0.000  0.000  0.000  0.000  0.000  0.000  0.000  0.012

band     6 # energy   22.73223148 # occ.  0.00000000

ion      s     py     pz     px    dxy    dyz    dz2    dxz  x2-y2    tot
    1  0.000  0.068  0.000  0.068  0.000  0.000  0.000  0.000  0.000  0.136


 k-point    15 :    0.46666667 0.06666667 0.00000000     weight = 0.00711111

band     1 # energy    1.29081209 # occ.  2.00000000

ion      s     py     pz     px    dxy    dyz    dz2    dxz  x2-y2    tot
    1  0.305  0.025  0.050  0.025  0.000  0.000  0.000  0.000  0.000  0.404

band     2 # energy    4.45677138 # occ.  2.00000000

ion      s     py     pz     px    dxy    dyz    dz2    dxz  x2-y2    tot
    1  0.145  0.082  0.056  0.082  0.000  0.000  0.000  0.000  0.000  0.366

band     3 # energy   17.26744952 # occ.  0.00000000

ion      s     py     pz     px    dxy    dyz    dz2    dxz  x2-y2    tot
    1  0.049  0.068  0.350  0.068  0.000  0.000  0.000  0.000  0.000  0.536

band     4 # energy   17.28123447 # occ.  0.00000000

ion      s     py     pz     px    dxy    dyz    dz2    dxz  x2-y2    tot
    1  0.000  0.251  0.000  0.251  0.000  0.000  0.000  0.000  0.000  0.501

band     5 # energy   20.08945848 # occ.  0.00000000

ion      s     py     pz     px    dxy    dyz    dz2    dxz  x2-y2    tot
    1  0.020  0.007  0.011  0.007  0.000  0.000  0.000  0.000  0.000  0.046

band     6 # energy   21.96708440 # occ.  0.00000000

ion      s     py     pz     px    dxy    dyz    dz2    dxz  x2-y2    tot
    1  0.000  0.058  0.000  0.057  0.000  0.000  0.000  0.000  0.000  0.115


 k-point    16 :   -0.46666667 0.06666667 0.00000000     weight = 0.00711111

band     1 # energy    2.31639932 # occ.  2.00000000

ion      s     py     pz     px    dxy    dyz    dz2    dxz  x2-y2    tot
    1  0.402  0.017  0.003  0.017  0.000  0.000  0.000  0.000  0.000  0.439

band     2 # energy    3.27826414 # occ.  2.00000000

ion      s     py     pz     px    dxy    dyz    dz2    dxz  x2-y2    tot
    1  0.049  0.088  0.106  0.088  0.000  0.000  0.000  0.000  0.000  0.332

band     3 # energy   16.80624762 # occ.  0.00000000

ion      s     py     pz     px    dxy    dyz    dz2    dxz  x2-y2    tot
    1  0.044  0.071  0.309  0.071  0.000  0.000  0.000  0.000  0.000  0.495

band     4 # energy   17.64727286 # occ.  0.00000000

ion      s     py     pz     px    dxy    dyz    dz2    dxz  x2-y2    tot
    1  0.000  0.265  0.000  0.265  0.000  0.000  0.000  0.000  0.000  0.530

band     5 # energy   20.40688961 # occ.  0.00000000

ion      s     py     pz     px    dxy    dyz    dz2    dxz  x2-y2    tot
    1  0.024  0.018  0.026  0.018  0.000  0.000  0.000  0.000  0.000  0.087

band     6 # energy   21.45833362 # occ.  0.00000000

ion      s     py     pz     px    dxy    dyz    dz2    dxz  x2-y2    tot
    1  0.000  0.043  0.000  0.043  0.000  0.000  0.000  0.000  0.000  0.087


 k-point    17 :   -0.40000000 0.06666667 0.00000000     weight = 0.00711111

band     1 # energy    0.76434680 # occ.  2.00000000

ion      s     py     pz     px    dxy    dyz    dz2    dxz  x2-y2    tot
    1  0.301  0.040  0.018  0.040  0.000  0.000  0.000  0.000  0.000  0.400

band     2 # energy    5.13532678 # occ.  2.00000000

ion      s     py     pz     px    dxy    dyz    dz2    dxz  x2-y2    tot
    1  0.148  0.064  0.094  0.064  0.000  0.000  0.000  0.000  0.000  0.369

band     3 # energy   16.48450263 # occ.  0.00000000

ion      s     py     pz     px    dxy    dyz    dz2    dxz  x2-y2    tot
    1  0.040  0.075  0.274  0.075  0.000  0.000  0.000  0.000  0.000  0.465

band     4 # energy   18.15002281 # occ.  0.00000000

ion      s     py     pz     px    dxy    dyz    dz2    dxz  x2-y2    tot
    1  0.000  0.286  0.000  0.286  0.000  0.000  0.000  0.000  0.000  0.573

band     5 # energy   21.03993759 # occ.  0.00000000

ion      s     py     pz     px    dxy    dyz    dz2    dxz  x2-y2    tot
    1  0.025  0.029  0.034  0.029  0.000  0.000  0.000  0.000  0.000  0.117

band     6 # energy   21.26805302 # occ.  0.00000000

ion      s     py     pz     px    dxy    dyz    dz2    dxz  x2-y2    tot
    1  0.000  0.021  0.000  0.021  0.000  0.000  0.000  0.000  0.000  0.043


 k-point    18 :   -0.33333333 0.06666667 0.00000000     weight = 0.00711111

band     1 # energy   -0.67932284 # occ.  2.00000000

ion      s     py     pz     px    dxy    dyz    dz2    dxz  x2-y2    tot
    1  0.313  0.033  0.014  0.033  0.000  0.000  0.000  0.000  0.000  0.393

band     2 # energy    7.33645812 # occ.  2.00000000

ion      s     py     pz     px    dxy    dyz    dz2    dxz  x2-y2    tot
    1  0.129  0.068  0.102  0.068  0.000  0.000  0.000  0.000  0.000  0.368

band     3 # energy   16.34626397 # occ.  0.00000000

ion      s     py     pz     px    dxy    dyz    dz2    dxz  x2-y2    tot
    1  0.038  0.081  0.245  0.081  0.000  0.000  0.000  0.000  0.000  0.444

band     4 # energy   18.70473391 # occ.  0.00000000

ion      s     py     pz     px    dxy    dyz    dz2    dxz  x2-y2    tot
    1  0.000  0.303  0.000  0.303  0.000  0.000  0.000  0.000  0.000  0.607

band     5 # energy   21.43251342 # occ.  0.00000000

ion      s     py     pz     px    dxy    dyz    dz2    dxz  x2-y2    tot
    1  0.000  0.003  0.000  0.003  0.000  0.000  0.000  0.000  0.000  0.006

band     6 # energy   21.91169331 # occ.  0.00000000

ion      s     py     pz     px    dxy    dyz    dz2    dxz  x2-y2    tot
    1  0.024  0.038  0.037  0.038  0.000  0.000  0.000  0.000  0.000  0.137


 k-point    19 :   -0.26666667 0.06666667 0.00000000     weight = 0.00711111

band     1 # energy   -1.88981581 # occ.  2.00000000

ion      s     py     pz     px    dxy    dyz    dz2    dxz  x2-y2    tot
    1  0.332  0.024  0.009  0.024  0.000  0.000  0.000  0.000  0.000  0.390

band     2 # energy    9.75041588 # occ.  1.12929772

ion      s     py     pz     px    dxy    dyz    dz2    dxz  x2-y2    tot
    1  0.101  0.075  0.112  0.075  0.000  0.000  0.000  0.000  0.000  0.363

band     3 # energy   16.41509750 # occ.  0.00000000

ion      s     py     pz     px    dxy    dyz    dz2    dxz  x2-y2    tot
    1  0.036  0.088  0.219  0.088  0.000  0.000  0.000  0.000  0.000  0.432

band     4 # energy   19.24722639 # occ.  0.00000000

ion      s     py     pz     px    dxy    dyz    dz2    dxz  x2-y2    tot
    1  0.000  0.305  0.000  0.305  0.000  0.000  0.000  0.000  0.000  0.610

band     5 # energy   21.98612414 # occ.  0.00000000

ion      s     py     pz     px    dxy    dyz    dz2    dxz  x2-y2    tot
    1  0.000  0.003  0.000  0.003  0.000  0.000  0.000  0.000  0.000  0.006

band     6 # energy   22.97177334 # occ.  0.00000000

ion      s     py     pz     px    dxy    dyz    dz2    dxz  x2-y2    tot
    1  0.024  0.046  0.033  0.047  0.000  0.000  0.000  0.000  0.000  0.150


 k-point    20 :   -0.20000000 0.06666667 0.00000000     weight = 0.00711111

band     1 # energy   -2.85554915 # occ.  2.00000000

ion      s     py     pz     px    dxy    dyz    dz2    dxz  x2-y2    tot
    1  0.351  0.016  0.004  0.016  0.000  0.000  0.000  0.000  0.000  0.388

band     2 # energy   12.34894316 # occ. -0.00467963

ion      s     py     pz     px    dxy    dyz    dz2    dxz  x2-y2    tot
    1  0.071  0.080  0.126  0.080  0.000  0.000  0.000  0.000  0.000  0.357

band     3 # energy   16.69299684 # occ.  0.00000000

ion      s     py     pz     px    dxy    dyz    dz2    dxz  x2-y2    tot
    1  0.033  0.097  0.192  0.097  0.000  0.000  0.000  0.000  0.000  0.420

band     4 # energy   19.78909942 # occ.  0.00000000

ion      s     py     pz     px    dxy    dyz    dz2    dxz  x2-y2    tot
    1  0.000  0.297  0.000  0.297  0.000  0.000  0.000  0.000  0.000  0.594

band     5 # energy   22.76537999 # occ.  0.00000000

ion      s     py     pz     px    dxy    dyz    dz2    dxz  x2-y2    tot
    1  0.000  0.026  0.000  0.026  0.000  0.000  0.000  0.000  0.000  0.052

band     6 # energy   23.46523877 # occ.  0.00000000

ion      s     py     pz     px    dxy    dyz    dz2    dxz  x2-y2    tot
    1  0.078  0.004  0.204  0.004  0.000  0.000  0.000  0.000  0.000  0.290


 k-point    21 :   -0.13333333 0.06666667 0.00000000     weight = 0.00711111

band     1 # energy   -3.57269426 # occ.  2.00000000

ion      s     py     pz     px    dxy    dyz    dz2    dxz  x2-y2    tot
    1  0.367  0.010  0.001  0.010  0.000  0.000  0.000  0.000  0.000  0.387

band     2 # energy   15.09018203 # occ.  0.00000000

ion      s     py     pz     px    dxy    dyz    dz2    dxz  x2-y2    tot
    1  0.042  0.082  0.152  0.082  0.000  0.000  0.000  0.000  0.000  0.359

band     3 # energy   17.18434098 # occ.  0.00000000

ion      s     py     pz     px    dxy    dyz    dz2    dxz  x2-y2    tot
    1  0.030  0.112  0.161  0.112  0.000  0.000  0.000  0.000  0.000  0.415

band     4 # energy   20.36681920 # occ.  0.00000000

ion      s     py     pz     px    dxy    dyz    dz2    dxz  x2-y2    tot
    1  0.000  0.304  0.000  0.304  0.000  0.000  0.000  0.000  0.000  0.608

band     5 # energy   22.85834521 # occ.  0.00000000

ion      s     py     pz     px    dxy    dyz    dz2    dxz  x2-y2    tot
    1  0.000  0.049  0.000  0.049  0.000  0.000  0.000  0.000  0.000  0.098

band     6 # energy   23.42430015 # occ.  0.00000000

ion      s     py     pz     px    dxy    dyz    dz2    dxz  x2-y2    tot
    1  0.027  0.005  0.285  0.005  0.000  0.000  0.000  0.000  0.000  0.322


 k-point    22 :   -0.06666667 0.06666667 0.00000000     weight = 0.00355556

band     1 # energy   -4.03828908 # occ.  2.00000000

ion      s     py     pz     px    dxy    dyz    dz2    dxz  x2-y2    tot
    1  0.377  0.004  0.000  0.004  0.000  0.000  0.000  0.000  0.000  0.386

band     2 # energy   17.76815644 # occ.  0.00000000

ion      s     py     pz     px    dxy    dyz    dz2    dxz  x2-y2    tot
    1  0.000  0.000  0.330  0.000  0.000  0.000  0.000  0.000  0.000  0.330

band     3 # energy   17.95355370 # occ.  0.00000000

ion      s     py     pz     px    dxy    dyz    dz2    dxz  x2-y2    tot
    1  0.040  0.212  0.000  0.212  0.000  0.000  0.000  0.000  0.000  0.463

band     4 # energy   20.76780972 # occ.  0.00000000

ion      s     py     pz     px    dxy    dyz    dz2    dxz  x2-y2    tot
    1  0.000  0.348  0.000  0.348  0.000  0.000  0.000  0.000  0.000  0.696

band     5 # energy   22.12610728 # occ.  0.00000000

ion      s     py     pz     px    dxy    dyz    dz2    dxz  x2-y2    tot
    1  0.000  0.000  0.000  0.000  0.000  0.000  0.000  0.000  0.000  0.000

band     6 # energy   23.07148602 # occ.  0.00000000

ion      s     py     pz     px    dxy    dyz    dz2    dxz  x2-y2    tot
    1  0.000  0.000  0.334  0.000  0.000  0.000  0.000  0.000  0.000  0.334


 k-point    23 :    0.13333333 0.13333333 0.00000000     weight = 0.00177778

band     1 # energy   -3.69942463 # occ.  2.00000000

ion      s     py     pz     px    dxy    dyz    dz2    dxz  x2-y2    tot
    1  0.369  0.000  0.017  0.000  0.000  0.000  0.000  0.000  0.000  0.387

band     2 # energy   17.45001634 # occ.  0.00000000

ion      s     py     pz     px    dxy    dyz    dz2    dxz  x2-y2    tot
    1  0.000  0.213  0.000  0.213  0.000  0.000  0.000  0.000  0.000  0.427

band     3 # energy   17.45011425 # occ.  0.00000000

ion      s     py     pz     px    dxy    dyz    dz2    dxz  x2-y2    tot
    1  0.000  0.213  0.000  0.213  0.000  0.000  0.000  0.000  0.000  0.427

band     4 # energy   19.22392701 # occ.  0.00000000

ion      s     py     pz     px    dxy    dyz    dz2    dxz  x2-y2    tot
    1  0.118  0.000  0.567  0.000  0.000  0.000  0.000  0.000  0.000  0.685

band     5 # energy   19.25427617 # occ.  0.00000000

ion      s     py     pz     px    dxy    dyz    dz2    dxz  x2-y2    tot
    1  0.000  0.000  0.000  0.000  0.000  0.000  0.000  0.000  0.000  0.000
