<?xml version="1.0" encoding="ISO-8859-1"?>
<modeling>
 <generator>
  <i name="program" type="string">vasp </i>
  <i name="version" type="string">6.3.0  </i>
  <i name="subversion" type="string">20Jan22 (build Oct  7 2022 22:46:23) complex                          parallel </i>
  <i name="platform" type="string">LinuxGNU </i>
  <i name="date" type="string">2025 04 17 </i>
  <i name="time" type="string">10:43:13 </i>
 </generator>
 <incar>
  <i type="string" name="SYSTEM">fcc Si</i>
  <i name="ENCUT">    240.00000000</i>
  <i type="int" name="ISMEAR">    -5</i>
  <i type="int" name="LORBIT">    11</i>
 </incar>
 <primitive_cell>
  <structure name="primitive_cell" >
   <crystal>
    <varray name="basis" >
     <v>       0.00000000       1.95000000       1.95000000 </v>
     <v>       1.95000000       0.00000000       1.95000000 </v>
     <v>       1.95000000       1.95000000       0.00000000 </v>
    </varray>
    <i name="volume">     14.82975000 </i>
    <varray name="rec_basis" >
     <v>      -0.25641026       0.25641026       0.25641026 </v>
     <v>       0.25641026      -0.25641026       0.25641026 </v>
     <v>       0.25641026       0.25641026      -0.25641026 </v>
    </varray>
   </crystal>
   <varray name="positions" >
    <v>       0.00000000       0.00000000       0.00000000 </v>
   </varray>
  </structure>
  <varray name="primitive_index" >
   <v type="int" >        1 </v>
  </varray>
 </primitive_cell>
 <kpoints>
  <generation param="Monkhorst-Pack">
   <v type="int" name="divisions">      15       15       15 </v>
   <v name="usershift">      0.00000000       0.00000000       0.00000000 </v>
   <v name="genvec1">      0.06666667       0.00000000      -0.00000000 </v>
   <v name="genvec2">      0.00000000       0.06666667       0.00000000 </v>
   <v name="genvec3">     -0.00000000      -0.00000000       0.06666667 </v>
   <v name="shift">      0.00000000       0.00000000       0.00000000 </v>
  </generation>
  <varray name="kpointlist" >
   <v>       0.00000000       0.00000000       0.00000000 </v>
   <v>       0.06666667       0.00000000       0.00000000 </v>
   <v>       0.13333333       0.00000000       0.00000000 </v>
   <v>       0.20000000       0.00000000       0.00000000 </v>
   <v>       0.26666667       0.00000000       0.00000000 </v>
   <v>       0.33333333       0.00000000       0.00000000 </v>
   <v>       0.40000000       0.00000000       0.00000000 </v>
   <v>       0.46666667       0.00000000       0.00000000 </v>
   <v>       0.06666667       0.06666667       0.00000000 </v>
   <v>       0.13333333       0.06666667       0.00000000 </v>
   <v>       0.20000000       0.06666667       0.00000000 </v>
   <v>       0.26666667       0.06666667       0.00000000 </v>
   <v>       0.33333333       0.06666667       0.00000000 </v>
   <v>       0.40000000       0.06666667       0.00000000 </v>
   <v>       0.46666667       0.06666667       0.00000000 </v>
   <v>      -0.46666667       0.06666667       0.00000000 </v>
   <v>      -0.40000000       0.06666667       0.00000000 </v>
   <v>      -0.33333333       0.06666667       0.00000000 </v>
   <v>      -0.26666667       0.06666667       0.00000000 </v>
   <v>      -0.20000000       0.06666667       0.00000000 </v>
   <v>      -0.13333333       0.06666667       0.00000000 </v>
   <v>      -0.06666667       0.06666667       0.00000000 </v>
   <v>       0.13333333       0.13333333       0.00000000 </v>
   <v>       0.20000000       0.13333333       0.00000000 </v>
   <v>       0.26666667       0.13333333       0.00000000 </v>
   <v>       0.33333333       0.13333333       0.00000000 </v>
   <v>       0.40000000       0.13333333       0.00000000 </v>
   <v>       0.46666667       0.13333333       0.00000000 </v>
   <v>      -0.46666667       0.13333333       0.00000000 </v>
   <v>      -0.40000000       0.13333333       0.00000000 </v>
   <v>      -0.33333333       0.13333333       0.00000000 </v>
   <v>      -0.26666667       0.13333333       0.00000000 </v>
   <v>      -0.20000000       0.13333333       0.00000000 </v>
   <v>      -0.13333333       0.13333333       0.00000000 </v>
   <v>       0.20000000       0.20000000       0.00000000 </v>
   <v>       0.26666667       0.20000000       0.00000000 </v>
   <v>       0.33333333       0.20000000       0.00000000 </v>
   <v>       0.40000000       0.20000000       0.00000000 </v>
   <v>       0.46666667       0.20000000       0.00000000 </v>
   <v>      -0.46666667       0.20000000       0.00000000 </v>
   <v>      -0.40000000       0.20000000       0.00000000 </v>
   <v>      -0.33333333       0.20000000       0.00000000 </v>
   <v>      -0.26666667       0.20000000       0.00000000 </v>
   <v>      -0.20000000       0.20000000       0.00000000 </v>
   <v>       0.26666667       0.26666667       0.00000000 </v>
   <v>       0.33333333       0.26666667       0.00000000 </v>
   <v>       0.40000000       0.26666667       0.00000000 </v>
   <v>       0.46666667       0.26666667       0.00000000 </v>
   <v>      -0.46666667       0.26666667       0.00000000 </v>
   <v>      -0.40000000       0.26666667       0.00000000 </v>
   <v>      -0.33333333       0.26666667       0.00000000 </v>
   <v>      -0.26666667       0.26666667       0.00000000 </v>
   <v>       0.33333333       0.33333333       0.00000000 </v>
   <v>       0.40000000       0.33333333       0.00000000 </v>
   <v>       0.46666667       0.33333333       0.00000000 </v>
   <v>      -0.46666667       0.33333333       0.00000000 </v>
   <v>      -0.40000000       0.33333333       0.00000000 </v>
   <v>      -0.33333333       0.33333333       0.00000000 </v>
   <v>       0.40000000       0.40000000       0.00000000 </v>
   <v>       0.46666667       0.40000000       0.00000000 </v>
   <v>      -0.46666667       0.40000000       0.00000000 </v>
   <v>      -0.40000000       0.40000000       0.00000000 </v>
   <v>       0.46666667       0.46666667       0.00000000 </v>
   <v>      -0.46666667       0.46666667       0.00000000 </v>
   <v>       0.20000000       0.13333333       0.06666667 </v>
   <v>       0.26666667       0.13333333       0.06666667 </v>
   <v>       0.33333333       0.13333333       0.06666667 </v>
   <v>       0.40000000       0.13333333       0.06666667 </v>
   <v>       0.46666667       0.13333333       0.06666667 </v>
   <v>      -0.46666667       0.13333333       0.06666667 </v>
   <v>       0.26666667       0.20000000       0.06666667 </v>
   <v>       0.33333333       0.20000000       0.06666667 </v>
   <v>       0.40000000       0.20000000       0.06666667 </v>
   <v>       0.46666667       0.20000000       0.06666667 </v>
   <v>      -0.46666667       0.20000000       0.06666667 </v>
   <v>      -0.40000000       0.20000000       0.06666667 </v>
   <v>      -0.33333333       0.20000000       0.06666667 </v>
   <v>      -0.26666667       0.20000000       0.06666667 </v>
   <v>      -0.20000000       0.20000000       0.06666667 </v>
   <v>      -0.13333333       0.20000000       0.06666667 </v>
   <v>       0.33333333       0.26666667       0.06666667 </v>
   <v>       0.40000000       0.26666667       0.06666667 </v>
   <v>       0.46666667       0.26666667       0.06666667 </v>
   <v>      -0.46666667       0.26666667       0.06666667 </v>
   <v>      -0.40000000       0.26666667       0.06666667 </v>
   <v>      -0.33333333       0.26666667       0.06666667 </v>
   <v>      -0.26666667       0.26666667       0.06666667 </v>
   <v>      -0.20000000       0.26666667       0.06666667 </v>
   <v>       0.40000000       0.33333333       0.06666667 </v>
   <v>       0.46666667       0.33333333       0.06666667 </v>
   <v>      -0.46666667       0.33333333       0.06666667 </v>
   <v>      -0.40000000       0.33333333       0.06666667 </v>
   <v>      -0.33333333       0.33333333       0.06666667 </v>
   <v>      -0.26666667       0.33333333       0.06666667 </v>
   <v>       0.46666667       0.40000000       0.06666667 </v>
   <v>      -0.46666667       0.40000000       0.06666667 </v>
   <v>      -0.40000000       0.40000000       0.06666667 </v>
   <v>      -0.33333333       0.40000000       0.06666667 </v>
   <v>      -0.46666667       0.46666667       0.06666667 </v>
   <v>      -0.40000000       0.46666667       0.06666667 </v>
   <v>       0.40000000       0.26666667       0.13333333 </v>
   <v>       0.46666667       0.26666667       0.13333333 </v>
   <v>      -0.46666667       0.26666667       0.13333333 </v>
   <v>      -0.40000000       0.26666667       0.13333333 </v>
   <v>       0.46666667       0.33333333       0.13333333 </v>
   <v>      -0.46666667       0.33333333       0.13333333 </v>
   <v>      -0.40000000       0.33333333       0.13333333 </v>
   <v>      -0.33333333       0.33333333       0.13333333 </v>
   <v>      -0.26666667       0.33333333       0.13333333 </v>
   <v>      -0.20000000       0.33333333       0.13333333 </v>
   <v>      -0.46666667       0.40000000       0.13333333 </v>
   <v>      -0.40000000       0.40000000       0.13333333 </v>
   <v>      -0.33333333       0.40000000       0.13333333 </v>
   <v>      -0.26666667       0.40000000       0.13333333 </v>
   <v>      -0.40000000       0.46666667       0.13333333 </v>
   <v>      -0.33333333       0.46666667       0.13333333 </v>
   <v>      -0.40000000       0.40000000       0.20000000 </v>
   <v>      -0.33333333       0.40000000       0.20000000 </v>
   <v>      -0.33333333       0.46666667       0.20000000 </v>
   <v>      -0.26666667       0.46666667       0.20000000 </v>
  </varray>
  <varray name="weights" >
   <v>       0.00029630 </v>
   <v>       0.00237037 </v>
   <v>       0.00237037 </v>
   <v>       0.00237037 </v>
   <v>       0.00237037 </v>
   <v>       0.00237037 </v>
   <v>       0.00237037 </v>
   <v>       0.00237037 </v>
   <v>       0.00177778 </v>
   <v>       0.00711111 </v>
   <v>       0.00711111 </v>
   <v>       0.00711111 </v>
   <v>       0.00711111 </v>
   <v>       0.00711111 </v>
   <v>       0.00711111 </v>
   <v>       0.00711111 </v>
   <v>       0.00711111 </v>
   <v>       0.00711111 </v>
   <v>       0.00711111 </v>
   <v>       0.00711111 </v>
   <v>       0.00711111 </v>
   <v>       0.00355556 </v>
   <v>       0.00177778 </v>
   <v>       0.00711111 </v>
   <v>       0.00711111 </v>
   <v>       0.00711111 </v>
   <v>       0.00711111 </v>
   <v>       0.00711111 </v>
   <v>       0.00711111 </v>
   <v>       0.00711111 </v>
   <v>       0.00711111 </v>
   <v>       0.00711111 </v>
   <v>       0.00711111 </v>
   <v>       0.00355556 </v>
   <v>       0.00177778 </v>
   <v>       0.00711111 </v>
   <v>       0.00711111 </v>
   <v>       0.00711111 </v>
   <v>       0.00711111 </v>
   <v>       0.00711111 </v>
   <v>       0.00711111 </v>
   <v>       0.00711111 </v>
   <v>       0.00711111 </v>
   <v>       0.00355556 </v>
   <v>       0.00177778 </v>
   <v>       0.00711111 </v>
   <v>       0.00711111 </v>
   <v>       0.00711111 </v>
   <v>       0.00711111 </v>
   <v>       0.00711111 </v>
   <v>       0.00711111 </v>
   <v>       0.00355556 </v>
   <v>       0.00177778 </v>
   <v>       0.00711111 </v>
   <v>       0.00711111 </v>
   <v>       0.00711111 </v>
   <v>       0.00711111 </v>
   <v>       0.00355556 </v>
   <v>       0.00177778 </v>
   <v>       0.00711111 </v>
   <v>       0.00711111 </v>
   <v>       0.00355556 </v>
   <v>       0.00177778 </v>
   <v>       0.00355556 </v>
   <v>       0.00711111 </v>
   <v>       0.01422222 </v>
   <v>       0.01422222 </v>
   <v>       0.01422222 </v>
   <v>       0.01422222 </v>
   <v>       0.01422222 </v>
   <v>       0.00711111 </v>
   <v>       0.01422222 </v>
   <v>       0.01422222 </v>
   <v>       0.01422222 </v>
   <v>       0.01422222 </v>
   <v>       0.01422222 </v>
   <v>       0.01422222 </v>
   <v>       0.01422222 </v>
   <v>       0.01422222 </v>
   <v>       0.00711111 </v>
   <v>       0.00711111 </v>
   <v>       0.01422222 </v>
   <v>       0.01422222 </v>
   <v>       0.01422222 </v>
   <v>       0.01422222 </v>
   <v>       0.01422222 </v>
   <v>       0.01422222 </v>
   <v>       0.00711111 </v>
   <v>       0.00711111 </v>
   <v>       0.01422222 </v>
   <v>       0.01422222 </v>
   <v>       0.01422222 </v>
   <v>       0.01422222 </v>
   <v>       0.00711111 </v>
   <v>       0.00711111 </v>
   <v>       0.01422222 </v>
   <v>       0.01422222 </v>
   <v>       0.00711111 </v>
   <v>       0.00711111 </v>
   <v>       0.00711111 </v>
   <v>       0.00711111 </v>
   <v>       0.01422222 </v>
   <v>       0.01422222 </v>
   <v>       0.01422222 </v>
   <v>       0.00711111 </v>
   <v>       0.01422222 </v>
   <v>       0.01422222 </v>
   <v>       0.01422222 </v>
   <v>       0.01422222 </v>
   <v>       0.00711111 </v>
   <v>       0.00711111 </v>
   <v>       0.01422222 </v>
   <v>       0.01422222 </v>
   <v>       0.00711111 </v>
   <v>       0.00711111 </v>
   <v>       0.00711111 </v>
   <v>       0.00711111 </v>
   <v>       0.01422222 </v>
   <v>       0.00711111 </v>
   <v>       0.00711111 </v>
  </varray>
  <varray name="tetrahedronlist"  type="int" >
   <v type="int" >       48        2        3       10       22 </v>
   <v type="int" >       48       10       21       22       65 </v>
   <v type="int" >       24       21       21       22       65 </v>
   <v type="int" >       48        3       10       21       22 </v>
   <v type="int" >       48       21       34       65       66 </v>
   <v type="int" >       48       20       21       34       66 </v>
   <v type="int" >       24       21       21       34       65 </v>
   <v type="int" >       48       20       33       66       67 </v>
   <v type="int" >       48       19       20       33       67 </v>
   <v type="int" >       48       20       33       34       66 </v>
   <v type="int" >       48       19       32       67       68 </v>
   <v type="int" >       48       18       19       32       68 </v>
   <v type="int" >       48       19       32       33       67 </v>
   <v type="int" >       48       18       31       68       69 </v>
   <v type="int" >       48       17       18       31       69 </v>
   <v type="int" >       48       18       31       32       68 </v>
   <v type="int" >       48       17       30       69       70 </v>
   <v type="int" >       48       16       17       30       70 </v>
   <v type="int" >       48       17       30       31       69 </v>
   <v type="int" >       48       16       29       70       70 </v>
   <v type="int" >       48       15       16       29       70 </v>
   <v type="int" >       48       16       29       30       70 </v>
   <v type="int" >       48       15       28       69       70 </v>
   <v type="int" >       48       14       15       28       69 </v>
   <v type="int" >       48       15       28       29       70 </v>
   <v type="int" >       48       14       27       68       69 </v>
   <v type="int" >       48       13       14       27       68 </v>
   <v type="int" >       48       14       27       28       69 </v>
   <v type="int" >       48       13       26       67       68 </v>
   <v type="int" >       48       12       13       26       67 </v>
   <v type="int" >       48       13       26       27       68 </v>
   <v type="int" >       48       12       25       66       67 </v>
   <v type="int" >       48       11       12       25       66 </v>
   <v type="int" >       48       12       25       26       67 </v>
   <v type="int" >       48       11       24       65       66 </v>
   <v type="int" >       48       10       11       24       65 </v>
   <v type="int" >       48       11       24       25       66 </v>
   <v type="int" >       24       10       10       23       65 </v>
   <v type="int" >       24        9       10       10       23 </v>
   <v type="int" >       48       10       23       24       65 </v>
   <v type="int" >       24        9       10       10       22 </v>
   <v type="int" >       48        2        9       10       22 </v>
   <v type="int" >       48       10       11       21       65 </v>
   <v type="int" >       48        3       10       11       21 </v>
   <v type="int" >       48       24       65       66       71 </v>
   <v type="int" >       24       65       66       66       71 </v>
   <v type="int" >       24       34       65       66       66 </v>
   <v type="int" >       48       11       21       65       66 </v>
   <v type="int" >       48       66       71       72       80 </v>
   <v type="int" >       48       66       67       72       80 </v>
   <v type="int" >       48       33       66       67       80 </v>
   <v type="int" >       24       66       66       71       80 </v>
   <v type="int" >       24       34       66       66       80 </v>
   <v type="int" >       48       33       34       66       80 </v>
   <v type="int" >       48       67       72       73       79 </v>
   <v type="int" >       48       67       68       73       79 </v>
   <v type="int" >       48       32       67       68       79 </v>
   <v type="int" >       48       67       72       79       80 </v>
   <v type="int" >       48       33       67       79       80 </v>
   <v type="int" >       48       32       33       67       79 </v>
   <v type="int" >       48       68       73       74       78 </v>
   <v type="int" >       48       68       69       74       78 </v>
   <v type="int" >       48       31       68       69       78 </v>
   <v type="int" >       48       68       73       78       79 </v>
   <v type="int" >       48       32       68       78       79 </v>
   <v type="int" >       48       31       32       68       78 </v>
   <v type="int" >       48       69       74       75       77 </v>
   <v type="int" >       48       69       70       75       77 </v>
   <v type="int" >       48       30       69       70       77 </v>
   <v type="int" >       48       69       74       77       78 </v>
   <v type="int" >       48       31       69       77       78 </v>
   <v type="int" >       48       30       31       69       77 </v>
   <v type="int" >       48       70       75       76       76 </v>
   <v type="int" >       24       70       70       76       76 </v>
   <v type="int" >       48       29       70       70       76 </v>
   <v type="int" >       48       70       75       76       77 </v>
   <v type="int" >       48       30       70       76       77 </v>
   <v type="int" >       48       29       30       70       76 </v>
   <v type="int" >       48       28       69       70       75 </v>
   <v type="int" >       48       29       70       75       76 </v>
   <v type="int" >       48       28       29       70       75 </v>
   <v type="int" >       48       27       68       69       74 </v>
   <v type="int" >       48       28       69       74       75 </v>
   <v type="int" >       48       27       28       69       74 </v>
   <v type="int" >       48       26       67       68       73 </v>
   <v type="int" >       48       27       68       73       74 </v>
   <v type="int" >       48       26       27       68       73 </v>
   <v type="int" >       48       25       66       67       72 </v>
   <v type="int" >       48       26       67       72       73 </v>
   <v type="int" >       48       25       26       67       72 </v>
   <v type="int" >       48       25       66       71       72 </v>
   <v type="int" >       48       24       25       66       71 </v>
   <v type="int" >       24       24       24       65       71 </v>
   <v type="int" >       24       23       24       24       65 </v>
   <v type="int" >       24       10       10       22       65 </v>
   <v type="int" >       48       24       25       36       71 </v>
   <v type="int" >       48       36       71       72       81 </v>
   <v type="int" >       24       71       72       72       81 </v>
   <v type="int" >       24       71       72       72       80 </v>
   <v type="int" >       48       25       36       71       72 </v>
   <v type="int" >       48       72       81       82      101 </v>
   <v type="int" >       48       72       73       82      101 </v>
   <v type="int" >       48       72       73       79      101 </v>
   <v type="int" >       24       72       72       81      101 </v>
   <v type="int" >       24       72       72       80      101 </v>
   <v type="int" >       48       72       79       80      101 </v>
   <v type="int" >       48       73       82       83      102 </v>
   <v type="int" >       48       73       74       83      102 </v>
   <v type="int" >       48       73       74       78      102 </v>
   <v type="int" >       48       73       82      101      102 </v>
   <v type="int" >       48       73       79      101      102 </v>
   <v type="int" >       48       73       78       79      102 </v>
   <v type="int" >       48       74       83       84      103 </v>
   <v type="int" >       48       74       75       84      103 </v>
   <v type="int" >       48       74       75       77      103 </v>
   <v type="int" >       48       74       83      102      103 </v>
   <v type="int" >       48       74       78      102      103 </v>
   <v type="int" >       48       74       77       78      103 </v>
   <v type="int" >       48       75       84       85      104 </v>
   <v type="int" >       48       75       76       85      104 </v>
   <v type="int" >       48       75       76       76      104 </v>
   <v type="int" >       48       75       84      103      104 </v>
   <v type="int" >       48       75       77      103      104 </v>
   <v type="int" >       48       75       76       77      104 </v>
   <v type="int" >       48       76       85       86      104 </v>
   <v type="int" >       48       76       77       86      104 </v>
   <v type="int" >       48       76       85      104      104 </v>
   <v type="int" >       24       76       76      104      104 </v>
   <v type="int" >       48       77       86       87      103 </v>
   <v type="int" >       48       77       78       87      103 </v>
   <v type="int" >       48       77       86      103      104 </v>
   <v type="int" >       48       78       87       88      102 </v>
   <v type="int" >       48       78       79       88      102 </v>
   <v type="int" >       48       78       87      102      103 </v>
   <v type="int" >       24       79       79       88      101 </v>
   <v type="int" >       24       79       79       80      101 </v>
   <v type="int" >       48       79       88      101      102 </v>
   <v type="int" >       48       11       12       20       66 </v>
   <v type="int" >       48       11       20       21       66 </v>
   <v type="int" >       48       36       37       46       81 </v>
   <v type="int" >       48       36       37       72       81 </v>
   <v type="int" >       48       25       36       37       72 </v>
   <v type="int" >       48       46       81       82       89 </v>
   <v type="int" >       24       81       82       82       89 </v>
   <v type="int" >       24       81       82       82      101 </v>
   <v type="int" >       48       37       46       81       82 </v>
   <v type="int" >       48       37       72       81       82 </v>
   <v type="int" >       48       82       89       90      105 </v>
   <v type="int" >       48       82       83       90      105 </v>
   <v type="int" >       48       82       83      102      105 </v>
   <v type="int" >       24       82       82       89      105 </v>
   <v type="int" >       24       82       82      101      105 </v>
   <v type="int" >       48       82      101      102      105 </v>
   <v type="int" >       48       83       90       91      106 </v>
   <v type="int" >       48       83       84       91      106 </v>
   <v type="int" >       48       83       84      103      106 </v>
   <v type="int" >       48       83       90      105      106 </v>
   <v type="int" >       48       83      102      105      106 </v>
   <v type="int" >       48       83      102      103      106 </v>
   <v type="int" >       48       84       91       92      107 </v>
   <v type="int" >       48       84       85       92      107 </v>
   <v type="int" >       48       84       85      104      107 </v>
   <v type="int" >       48       84       91      106      107 </v>
   <v type="int" >       48       84      103      106      107 </v>
   <v type="int" >       48       84      103      104      107 </v>
   <v type="int" >       48       85       92       93      108 </v>
   <v type="int" >       48       85       86       93      108 </v>
   <v type="int" >       48       85       86      104      108 </v>
   <v type="int" >       48       85       92      107      108 </v>
   <v type="int" >       48       85      104      107      108 </v>
   <v type="int" >       48       85      104      104      108 </v>
   <v type="int" >       48       86       93       94      109 </v>
   <v type="int" >       48       86       87       94      109 </v>
   <v type="int" >       48       86       87      103      109 </v>
   <v type="int" >       48       86       93      108      109 </v>
   <v type="int" >       48       86      104      108      109 </v>
   <v type="int" >       48       86      103      104      109 </v>
   <v type="int" >       24       87       87       94      110 </v>
   <v type="int" >       24       87       87       88      110 </v>
   <v type="int" >       48       87       88      102      110 </v>
   <v type="int" >       48       87       94      109      110 </v>
   <v type="int" >       48       87      103      109      110 </v>
   <v type="int" >       48       87      102      103      110 </v>
   <v type="int" >       24       88      102      102      110 </v>
   <v type="int" >       24       88      101      102      102 </v>
   <v type="int" >       48       12       13       19       67 </v>
   <v type="int" >       48       12       19       20       67 </v>
   <v type="int" >       48       12       20       66       67 </v>
   <v type="int" >       48       46       47       54       89 </v>
   <v type="int" >       48       46       47       82       89 </v>
   <v type="int" >       48       37       46       47       82 </v>
   <v type="int" >       48       54       89       90       95 </v>
   <v type="int" >       24       89       90       90       95 </v>
   <v type="int" >       24       89       90       90      105 </v>
   <v type="int" >       48       47       54       89       90 </v>
   <v type="int" >       48       47       82       89       90 </v>
   <v type="int" >       48       90       95       96      111 </v>
   <v type="int" >       48       90       91       96      111 </v>
   <v type="int" >       48       90       91      106      111 </v>
   <v type="int" >       24       90       90       95      111 </v>
   <v type="int" >       24       90       90      105      111 </v>
   <v type="int" >       48       90      105      106      111 </v>
   <v type="int" >       48       91       96       97      112 </v>
   <v type="int" >       48       91       92       97      112 </v>
   <v type="int" >       48       91       92      107      112 </v>
   <v type="int" >       48       91       96      111      112 </v>
   <v type="int" >       48       91      106      111      112 </v>
   <v type="int" >       48       91      106      107      112 </v>
   <v type="int" >       48       92       97       98      113 </v>
   <v type="int" >       48       92       93       98      113 </v>
   <v type="int" >       48       92       93      108      113 </v>
   <v type="int" >       48       92       97      112      113 </v>
   <v type="int" >       48       92      107      112      113 </v>
   <v type="int" >       48       92      107      108      113 </v>
   <v type="int" >       24       93       93       98      114 </v>
   <v type="int" >       24       93       93       94      114 </v>
   <v type="int" >       48       93       94      109      114 </v>
   <v type="int" >       48       93       98      113      114 </v>
   <v type="int" >       48       93      108      113      114 </v>
   <v type="int" >       48       93      108      109      114 </v>
   <v type="int" >       24       94      109      109      114 </v>
   <v type="int" >       24       94      109      109      110 </v>
   <v type="int" >       48       13       14       18       68 </v>
   <v type="int" >       48       13       18       19       68 </v>
   <v type="int" >       48       13       19       67       68 </v>
   <v type="int" >       48       54       55       60       95 </v>
   <v type="int" >       48       54       55       90       95 </v>
   <v type="int" >       48       47       54       55       90 </v>
   <v type="int" >       48       60       95       96       99 </v>
   <v type="int" >       24       95       96       96       99 </v>
   <v type="int" >       24       95       96       96      111 </v>
   <v type="int" >       48       55       60       95       96 </v>
   <v type="int" >       48       55       90       95       96 </v>
   <v type="int" >       48       96       99      100      115 </v>
   <v type="int" >       48       96       97      100      115 </v>
   <v type="int" >       48       96       97      112      115 </v>
   <v type="int" >       24       96       96       99      115 </v>
   <v type="int" >       24       96       96      111      115 </v>
   <v type="int" >       48       96      111      112      115 </v>
   <v type="int" >       24       97       97      100      116 </v>
   <v type="int" >       24       97       97       98      116 </v>
   <v type="int" >       48       97       98      113      116 </v>
   <v type="int" >       48       97      100      115      116 </v>
   <v type="int" >       48       97      112      115      116 </v>
   <v type="int" >       48       97      112      113      116 </v>
   <v type="int" >       24       98      113      113      116 </v>
   <v type="int" >       24       98      113      113      114 </v>
   <v type="int" >       48       14       15       17       69 </v>
   <v type="int" >       48       14       17       18       69 </v>
   <v type="int" >       48       14       18       68       69 </v>
   <v type="int" >       48       60       61       64       99 </v>
   <v type="int" >       48       60       61       96       99 </v>
   <v type="int" >       48       55       60       61       96 </v>
   <v type="int" >       24       64       99       99      100 </v>
   <v type="int" >       12       99       99      100      100 </v>
   <v type="int" >       24       99      100      100      115 </v>
   <v type="int" >       48       61       64       99      100 </v>
   <v type="int" >       48       61       96       99      100 </v>
   <v type="int" >       12      100      100      115      115 </v>
   <v type="int" >       24      100      115      115      116 </v>
   <v type="int" >       48       15       16       16       70 </v>
   <v type="int" >       48       15       16       17       70 </v>
   <v type="int" >       48       15       17       69       70 </v>
   <v type="int" >       24       61       61       64      100 </v>
   <v type="int" >       24       16       16       70       70 </v>
   <v type="int" >       24        2        2        9       22 </v>
   <v type="int" >       48        3        4       11       21 </v>
   <v type="int" >       48        4       11       20       21 </v>
   <v type="int" >       24       33       33       34       80 </v>
   <v type="int" >       48       33       44       79       80 </v>
   <v type="int" >       48       32       33       44       79 </v>
   <v type="int" >       24       33       33       44       80 </v>
   <v type="int" >       48       32       43       78       79 </v>
   <v type="int" >       48       31       32       43       78 </v>
   <v type="int" >       48       32       43       44       79 </v>
   <v type="int" >       48       31       42       77       78 </v>
   <v type="int" >       48       30       31       42       77 </v>
   <v type="int" >       48       31       42       43       78 </v>
   <v type="int" >       48       30       41       76       77 </v>
   <v type="int" >       48       29       30       41       76 </v>
   <v type="int" >       48       30       41       42       77 </v>
   <v type="int" >       48       29       40       75       76 </v>
   <v type="int" >       48       28       29       40       75 </v>
   <v type="int" >       48       29       40       41       76 </v>
   <v type="int" >       48       28       39       74       75 </v>
   <v type="int" >       48       27       28       39       74 </v>
   <v type="int" >       48       28       39       40       75 </v>
   <v type="int" >       48       27       38       73       74 </v>
   <v type="int" >       48       26       27       38       73 </v>
   <v type="int" >       48       27       38       39       74 </v>
   <v type="int" >       48       26       37       72       73 </v>
   <v type="int" >       48       25       26       37       72 </v>
   <v type="int" >       48       26       37       38       73 </v>
   <v type="int" >       24       24       24       35       71 </v>
   <v type="int" >       24       23       24       24       35 </v>
   <v type="int" >       48       24       35       36       71 </v>
   <v type="int" >       48        4       11       12       20 </v>
   <v type="int" >       24       44       79       79       80 </v>
   <v type="int" >       48       43       78       79       88 </v>
   <v type="int" >       24       44       79       79       88 </v>
   <v type="int" >       48       43       44       79       88 </v>
   <v type="int" >       48       42       77       78       87 </v>
   <v type="int" >       48       43       78       87       88 </v>
   <v type="int" >       48       42       43       78       87 </v>
   <v type="int" >       48       41       76       77       86 </v>
   <v type="int" >       48       42       77       86       87 </v>
   <v type="int" >       48       41       42       77       86 </v>
   <v type="int" >       48       40       75       76       85 </v>
   <v type="int" >       48       41       76       85       86 </v>
   <v type="int" >       48       40       41       76       85 </v>
   <v type="int" >       48       39       74       75       84 </v>
   <v type="int" >       48       40       75       84       85 </v>
   <v type="int" >       48       39       40       75       84 </v>
   <v type="int" >       48       38       73       74       83 </v>
   <v type="int" >       48       39       74       83       84 </v>
   <v type="int" >       48       38       39       74       83 </v>
   <v type="int" >       48       37       72       73       82 </v>
   <v type="int" >       48       38       73       82       83 </v>
   <v type="int" >       48       37       38       73       82 </v>
   <v type="int" >       24       36       36       71       81 </v>
   <v type="int" >       24       35       36       36       71 </v>
   <v type="int" >       24      101      102      102      105 </v>
   <v type="int" >       48      102      105      106      110 </v>
   <v type="int" >       48      102      103      106      110 </v>
   <v type="int" >       24      102      102      105      110 </v>
   <v type="int" >       48      103      106      107      109 </v>
   <v type="int" >       48      103      104      107      109 </v>
   <v type="int" >       48      103      106      109      110 </v>
   <v type="int" >       48      104      107      108      108 </v>
   <v type="int" >       24      104      104      108      108 </v>
   <v type="int" >       48      104      107      108      109 </v>
   <v type="int" >       48       37       38       47       82 </v>
   <v type="int" >       48       47       82       83       90 </v>
   <v type="int" >       48       38       47       82       83 </v>
   <v type="int" >       24      105      106      106      111 </v>
   <v type="int" >       24      105      106      106      110 </v>
   <v type="int" >       48      106      111      112      117 </v>
   <v type="int" >       48      106      107      112      117 </v>
   <v type="int" >       48      106      107      109      117 </v>
   <v type="int" >       24      106      106      111      117 </v>
   <v type="int" >       24      106      106      110      117 </v>
   <v type="int" >       48      106      109      110      117 </v>
   <v type="int" >       48      107      112      113      118 </v>
   <v type="int" >       48      107      108      113      118 </v>
   <v type="int" >       48      107      108      108      118 </v>
   <v type="int" >       48      107      112      117      118 </v>
   <v type="int" >       48      107      109      117      118 </v>
   <v type="int" >       48      107      108      109      118 </v>
   <v type="int" >       48      108      113      114      118 </v>
   <v type="int" >       48      108      109      114      118 </v>
   <v type="int" >       48      108      113      118      118 </v>
   <v type="int" >       24      108      108      118      118 </v>
   <v type="int" >       24      109      109      114      117 </v>
   <v type="int" >       24      109      109      110      117 </v>
   <v type="int" >       48      109      114      117      118 </v>
   <v type="int" >       48       47       48       55       90 </v>
   <v type="int" >       48       47       48       83       90 </v>
   <v type="int" >       48       38       47       48       83 </v>
   <v type="int" >       48       55       90       91       96 </v>
   <v type="int" >       48       48       55       90       91 </v>
   <v type="int" >       48       48       83       90       91 </v>
   <v type="int" >       24      111      112      112      115 </v>
   <v type="int" >       24      111      112      112      117 </v>
   <v type="int" >       48      112      115      116      119 </v>
   <v type="int" >       48      112      113      116      119 </v>
   <v type="int" >       48      112      113      118      119 </v>
   <v type="int" >       24      112      112      115      119 </v>
   <v type="int" >       24      112      112      117      119 </v>
   <v type="int" >       48      112      117      118      119 </v>
   <v type="int" >       24      113      113      116      120 </v>
   <v type="int" >       24      113      113      114      120 </v>
   <v type="int" >       48      113      114      118      120 </v>
   <v type="int" >       48      113      116      119      120 </v>
   <v type="int" >       48      113      118      119      120 </v>
   <v type="int" >       48      113      118      118      120 </v>
   <v type="int" >       24      114      118      118      120 </v>
   <v type="int" >       24      114      117      118      118 </v>
   <v type="int" >       48       55       56       61       96 </v>
   <v type="int" >       48       55       56       91       96 </v>
   <v type="int" >       48       48       55       56       91 </v>
   <v type="int" >       48       61       96       97      100 </v>
   <v type="int" >       48       56       61       96       97 </v>
   <v type="int" >       48       56       91       96       97 </v>
   <v type="int" >       12      115      115      116      116 </v>
   <v type="int" >       24      115      116      116      119 </v>
   <v type="int" >       12      116      116      119      119 </v>
   <v type="int" >       24      116      119      119      120 </v>
   <v type="int" >       24       61       61       62      100 </v>
   <v type="int" >       48       61       62       97      100 </v>
   <v type="int" >       48       56       61       62       97 </v>
   <v type="int" >       24       62       97       97      100 </v>
   <v type="int" >       48        4        5       12       20 </v>
   <v type="int" >       48        5       12       19       20 </v>
   <v type="int" >       24       43       43       44       88 </v>
   <v type="int" >       48       43       52       87       88 </v>
   <v type="int" >       48       42       43       52       87 </v>
   <v type="int" >       24       43       43       52       88 </v>
   <v type="int" >       48       42       51       86       87 </v>
   <v type="int" >       48       41       42       51       86 </v>
   <v type="int" >       48       42       51       52       87 </v>
   <v type="int" >       48       41       50       85       86 </v>
   <v type="int" >       48       40       41       50       85 </v>
   <v type="int" >       48       41       50       51       86 </v>
   <v type="int" >       48       40       49       84       85 </v>
   <v type="int" >       48       39       40       49       84 </v>
   <v type="int" >       48       40       49       50       85 </v>
   <v type="int" >       48       39       48       83       84 </v>
   <v type="int" >       48       38       39       48       83 </v>
   <v type="int" >       48       39       48       49       84 </v>
   <v type="int" >       24       36       36       45       81 </v>
   <v type="int" >       24       35       36       36       45 </v>
   <v type="int" >       48       36       45       46       81 </v>
   <v type="int" >       48        5       12       13       19 </v>
   <v type="int" >       24       52       87       87       88 </v>
   <v type="int" >       48       51       86       87       94 </v>
   <v type="int" >       24       52       87       87       94 </v>
   <v type="int" >       48       51       52       87       94 </v>
   <v type="int" >       48       50       85       86       93 </v>
   <v type="int" >       48       51       86       93       94 </v>
   <v type="int" >       48       50       51       86       93 </v>
   <v type="int" >       48       49       84       85       92 </v>
   <v type="int" >       48       50       85       92       93 </v>
   <v type="int" >       48       49       50       85       92 </v>
   <v type="int" >       48       48       83       84       91 </v>
   <v type="int" >       48       49       84       91       92 </v>
   <v type="int" >       48       48       49       84       91 </v>
   <v type="int" >       24       46       46       81       89 </v>
   <v type="int" >       24       45       46       46       81 </v>
   <v type="int" >       24      117      118      118      119 </v>
   <v type="int" >       48      118      119      120      120 </v>
   <v type="int" >       24      118      118      120      120 </v>
   <v type="int" >       24      118      118      119      120 </v>
   <v type="int" >       48       48       49       56       91 </v>
   <v type="int" >       48       56       91       92       97 </v>
   <v type="int" >       48       49       56       91       92 </v>
   <v type="int" >       12      119      119      120      120 </v>
   <v type="int" >       24      119      120      120      120 </v>
   <v type="int" >        6      120      120      120      120 </v>
   <v type="int" >       48       56       57       62       97 </v>
   <v type="int" >       48       56       57       92       97 </v>
   <v type="int" >       48       49       56       57       92 </v>
   <v type="int" >       24       62       97       97       98 </v>
   <v type="int" >       48       57       62       97       98 </v>
   <v type="int" >       48       57       92       97       98 </v>
   <v type="int" >       24       57       57       62       98 </v>
   <v type="int" >       48        5        6       13       19 </v>
   <v type="int" >       48        6       13       18       19 </v>
   <v type="int" >       24       51       51       52       94 </v>
   <v type="int" >       48       51       58       93       94 </v>
   <v type="int" >       48       50       51       58       93 </v>
   <v type="int" >       24       51       51       58       94 </v>
   <v type="int" >       48       50       57       92       93 </v>
   <v type="int" >       48       49       50       57       92 </v>
   <v type="int" >       48       50       57       58       93 </v>
   <v type="int" >       24       46       46       53       89 </v>
   <v type="int" >       24       45       46       46       53 </v>
   <v type="int" >       48       46       53       54       89 </v>
   <v type="int" >       48        6       13       14       18 </v>
   <v type="int" >       24       58       93       93       94 </v>
   <v type="int" >       48       57       92       93       98 </v>
   <v type="int" >       24       58       93       93       98 </v>
   <v type="int" >       48       57       58       93       98 </v>
   <v type="int" >       24       54       54       89       95 </v>
   <v type="int" >       24       53       54       54       89 </v>
   <v type="int" >       24       57       57       58       98 </v>
   <v type="int" >       48        6        7       14       18 </v>
   <v type="int" >       48        7       14       17       18 </v>
   <v type="int" >       24       54       54       59       95 </v>
   <v type="int" >       24       53       54       54       59 </v>
   <v type="int" >       48       54       59       60       95 </v>
   <v type="int" >       48        7       14       15       17 </v>
   <v type="int" >       24       60       60       95       99 </v>
   <v type="int" >       24       59       60       60       95 </v>
   <v type="int" >       48        7        8       15       17 </v>
   <v type="int" >       48        8       15       16       17 </v>
   <v type="int" >       24       60       60       63       99 </v>
   <v type="int" >       24       59       60       60       63 </v>
   <v type="int" >       48       60       63       64       99 </v>
   <v type="int" >       48        8       15       16       16 </v>
   <v type="int" >       12       64       64       99       99 </v>
   <v type="int" >       24       63       64       64       99 </v>
   <v type="int" >       24        8        8       16       16 </v>
   <v type="int" >       12       63       63       64       64 </v>
   <v type="int" >       24        1        2        2        9 </v>
  </varray>
  <i name="volumeweight">      0.00004938 </i>
 </kpoints>
 <parameters>
  <separator name="general" >
   <i type="string" name="SYSTEM">fcc Si</i>
   <i type="logical" name="LCOMPAT"> F  </i>
  </separator>
  <separator name="electronic" >
   <i type="string" name="PREC">normal</i>
   <i name="ENMAX">    240.00000000</i>
   <i name="ENAUG">    322.06900000</i>
   <i name="EDIFF">      0.00010000</i>
   <i type="int" name="IALGO">    38</i>
   <i type="int" name="IWAVPR">    10</i>
   <i type="int" name="NBANDS">     6</i>
   <i type="int" name="NBANDSLOW">    -1</i>
   <i type="int" name="NBANDSHIGH">    -1</i>
   <i name="NELECT">      4.00000000</i>
   <i type="int" name="TURBO">     0</i>
   <i type="int" name="IRESTART">     0</i>
   <i type="int" name="NREBOOT">     0</i>
   <i type="int" name="NMIN">     0</i>
   <i name="EREF">      0.00000000</i>
   <separator name="electronic smearing" >
    <i type="int" name="ISMEAR">    -5</i>
    <i name="SIGMA">      0.20000000</i>
    <i name="KSPACING">      0.50000000</i>
    <i type="logical" name="KGAMMA"> T  </i>
    <i type="logical" name="KBLOWUP"> T  </i>
   </separator>
   <separator name="electronic projectors" >
    <i type="logical" name="LREAL"> F  </i>
    <v name="ROPT">      0.00000000</v>
    <i type="int" name="LMAXPAW">  -100</i>
    <i type="int" name="LMAXMIX">     2</i>
    <i type="logical" name="NLSPLINE"> F  </i>
   </separator>
   <separator name="electronic startup" >
    <i type="int" name="ISTART">     0</i>
    <i type="int" name="ICHARG">     2</i>
    <i type="int" name="INIWAV">     1</i>
   </separator>
   <separator name="electronic spin" >
    <i type="int" name="ISPIN">     1</i>
    <i type="logical" name="LNONCOLLINEAR"> F  </i>
    <v name="MAGMOM">      1.00000000</v>
    <i name="NUPDOWN">     -1.00000000</i>
    <i type="logical" name="LSORBIT"> F  </i>
    <v name="SAXIS">      0.00000000      0.00000000      1.00000000</v>
    <i type="logical" name="LSPIRAL"> F  </i>
    <v name="QSPIRAL">      0.00000000      0.00000000      0.00000000</v>
    <i type="logical" name="LZEROZ"> F  </i>
   </separator>
   <separator name="electronic exchange-correlation" >
    <i type="logical" name="LASPH"> F  </i>
    <i type="logical" name="LMETAGGA"> F  </i>
   </separator>
   <separator name="electronic convergence" >
    <i type="int" name="NELM">    60</i>
    <i type="int" name="NELMDL">    -5</i>
    <i type="int" name="NELMIN">     2</i>
    <i name="ENINI">    240.00000000</i>
    <separator name="electronic convergence detail" >
     <i type="logical" name="LDIAG"> T  </i>
     <i type="logical" name="LSUBROT"> F  </i>
     <i name="WEIMIN">      0.00000000</i>
     <i name="EBREAK">      0.00000417</i>
     <i name="DEPER">      0.30000000</i>
     <i type="int" name="NRMM">     4</i>
     <i name="TIME">      0.40000000</i>
    </separator>
   </separator>
   <separator name="electronic mixer" >
    <i name="AMIX">      0.40000000</i>
    <i name="BMIX">      1.00000000</i>
    <i name="AMIN">      0.10000000</i>
    <i name="AMIX_MAG">      1.60000000</i>
    <i name="BMIX_MAG">      1.00000000</i>
    <separator name="electronic mixer details" >
     <i type="int" name="IMIX">     4</i>
     <i type="logical" name="MIXFIRST"> F  </i>
     <i type="int" name="MAXMIX">   -45</i>
     <i name="WC">    100.00000000</i>
     <i type="int" name="INIMIX">     1</i>
     <i type="int" name="MIXPRE">     1</i>
     <i type="int" name="MREMOVE">     5</i>
    </separator>
   </separator>
   <separator name="electronic dipolcorrection" >
    <i type="logical" name="LDIPOL"> F  </i>
    <i type="logical" name="LMONO"> F  </i>
    <i type="int" name="IDIPOL">     0</i>
    <i name="EPSILON">      1.00000000</i>
    <v name="DIPOL">   -100.00000000   -100.00000000   -100.00000000</v>
    <i name="EFIELD">      0.00000000</i>
   </separator>
  </separator>
  <separator name="grids" >
   <i type="int" name="NGX">    10</i>
   <i type="int" name="NGY">    10</i>
   <i type="int" name="NGZ">    10</i>
   <i type="int" name="NGXF">    20</i>
   <i type="int" name="NGYF">    20</i>
   <i type="int" name="NGZF">    20</i>
   <i type="logical" name="ADDGRID"> F  </i>
  </separator>
  <separator name="ionic" >
   <i type="int" name="NSW">     0</i>
   <i type="int" name="IBRION">    -1</i>
   <i type="int" name="MDALGO">     0</i>
   <i type="int" name="ISIF">     2</i>
   <i name="PSTRESS">      0.00000000</i>
   <i name="EDIFFG">      0.00100000</i>
   <i type="int" name="NFREE">     0</i>
   <i name="POTIM">      0.50000000</i>
   <i name="SMASS">     -3.00000000</i>
   <i name="SCALEE">      1.00000000</i>
  </separator>
  <separator name="ionic md" >
   <i name="TEBEG">      0.00010000</i>
   <i name="TEEND">      0.00010000</i>
   <i type="int" name="NBLOCK">     1</i>
   <i type="int" name="KBLOCK">     1</i>
   <i type="int" name="NPACO">   256</i>
   <i name="APACO">     10.00000000</i>
  </separator>
  <separator name="symmetry" >
   <i type="int" name="ISYM">     2</i>
   <i name="SYMPREC">      0.00001000</i>
  </separator>
  <separator name="dos" >
   <i type="int" name="LORBIT">    11</i>
   <v name="RWIGS">     -1.00000000</v>
   <i type="int" name="NEDOS">   301</i>
   <i name="EMIN">     10.00000000</i>
   <i name="EMAX">    -10.00000000</i>
   <i name="EFERMI">      0.00000000</i>
  </separator>
  <separator name="writing" >
   <i type="int" name="NWRITE">     2</i>
   <i type="logical" name="LWAVE"> T  </i>
   <i type="logical" name="LDOWNSAMPLE"> F  </i>
   <i type="logical" name="LCHARG"> T  </i>
   <i type="logical" name="LPARD"> F  </i>
   <i type="logical" name="LVTOT"> F  </i>
   <i type="logical" name="LVHAR"> F  </i>
   <i type="logical" name="LELF"> F  </i>
   <i type="logical" name="LOPTICS"> F  </i>
   <v name="STM">      0.00000000      0.00000000      0.00000000      0.00000000      0.00000000      0.00000000      0.00000000</v>
  </separator>
  <separator name="performance" >
   <i type="int" name="NPAR">     2</i>
   <i type="int" name="NSIM">     4</i>
   <i type="int" name="NBLK">    -1</i>
   <i type="logical" name="LPLANE"> T  </i>
   <i type="logical" name="LSCALAPACK"> T  </i>
   <i type="logical" name="LSCAAWARE"> F  </i>
   <i type="logical" name="LSCALU"> F  </i>
   <i type="logical" name="LASYNC"> F  </i>
   <i type="logical" name="LORBITALREAL"> F  </i>
  </separator>
  <separator name="miscellaneous" >
   <i type="int" name="IDIOT">     3</i>
   <i type="int" name="PHON_NSTRUCT">    -1</i>
   <i type="logical" name="LMUSIC"> F  </i>
   <v name="POMASS">     28.08500000</v>
   <v name="DARWINR">      0.00000000</v>
   <v name="DARWINV">      1.00000000</v>
   <i type="logical" name="LCORR"> T  </i>
  </separator>
  <i type="logical" name="GGA_COMPAT"> T  </i>
  <i type="logical" name="LBERRY"> F  </i>
  <i type="int" name="ICORELEVEL">     0</i>
  <i type="logical" name="LDAU"> F  </i>
  <i type="int" name="I_CONSTRAINED_M">     0</i>
  <separator name="electronic exchange-correlation" >
   <i type="string" name="GGA">--</i>
   <i type="int" name="VOSKOWN">     0</i>
   <i type="logical" name="LHFCALC"> F  </i>
   <i type="string" name="PRECFOCK"></i>
   <i type="logical" name="LSYMGRAD"> F  </i>
   <i type="logical" name="LHFONE"> F  </i>
   <i type="logical" name="LRHFCALC"> F  </i>
   <i type="logical" name="LTHOMAS"> F  </i>
   <i type="logical" name="LMODELHF"> F  </i>
   <i type="logical" name="LFOCKACE"> F  </i>
   <i name="ENCUT4O">     -1.00000000</i>
   <i type="int" name="EXXOEP">     0</i>
   <i type="int" name="FOURORBIT">     0</i>
   <i name="AEXX">      0.00000000</i>
   <i name="HFALPHA">      0.00000000</i>
   <i name="MCALPHA">      0.00000000</i>
   <i name="ALDAX">      1.00000000</i>
   <i name="AGGAX">      1.00000000</i>
   <i name="ALDAC">      1.00000000</i>
   <i name="AGGAC">      1.00000000</i>
   <i type="int" name="NKREDX">     1</i>
   <i type="int" name="NKREDY">     1</i>
   <i type="int" name="NKREDZ">     1</i>
   <i type="logical" name="SHIFTRED"> F  </i>
   <i type="logical" name="ODDONLY"> F  </i>
   <i type="logical" name="EVENONLY"> F  </i>
   <i type="int" name="LMAXFOCK">     0</i>
   <i type="int" name="NMAXFOCKAE">     0</i>
   <i type="logical" name="LFOCKAEDFT"> F  </i>
   <i name="HFSCREEN">      0.00000000</i>
   <i name="HFSCREENC">      0.00000000</i>
   <i type="int" name="NBANDSGWLOW">     0</i>
  </separator>
  <separator name="vdW DFT" >
   <i type="logical" name="LUSE_VDW"> F  </i>
   <i name="Zab_VDW">     -0.84910000</i>
   <i name="PARAM1">      0.12340000</i>
   <i name="PARAM2">      1.00000000</i>
   <i name="PARAM3">      0.00000000</i>
  </separator>
  <separator name="model GW" >
   <i type="int" name="MODEL_GW">     0</i>
   <i name="MODEL_EPS0">      8.89785000</i>
   <i name="MODEL_ALPHA">      1.00000000</i>
  </separator>
  <separator name="linear response parameters" >
   <i type="logical" name="LEPSILON"> F  </i>
   <i type="logical" name="LRPA"> F  </i>
   <i type="logical" name="LNABLA"> F  </i>
   <i type="logical" name="LVEL"> F  </i>
   <i name="CSHIFT">      0.10000000</i>
   <i name="OMEGAMAX">     -1.00000000</i>
   <i name="DEG_THRESHOLD">      0.00200000</i>
   <i name="RTIME">     -0.10000000</i>
   <i name="WPLASMAI">      0.00000000</i>
   <v name="DFIELD">      0.00000000      0.00000000      0.00000000</v>
   <v name="WPLASMA">      0.00000000      0.00000000      0.00000000      0.00000000      0.00000000      0.00000000      0.00000000      0.00000000      0.00000000</v>
  </separator>
  <separator name="orbital magnetization" >
   <i type="logical" name="NUCIND"> F  </i>
   <v name="MAGPOS">      0.00000000      0.00000000      0.00000000</v>
   <i type="logical" name="LNICSALL"> T  </i>
   <i type="logical" name="ORBITALMAG"> F  </i>
   <i type="logical" name="LMAGBLOCH"> F  </i>
   <i type="logical" name="LCHIMAG"> F  </i>
   <i type="logical" name="LGAUGE"> T  </i>
   <i type="int" name="MAGATOM">     0</i>
   <v name="MAGDIPOL">      0.00000000      0.00000000      0.00000000</v>
   <v name="AVECCONST">      0.00000000      0.00000000      0.00000000</v>
  </separator>
  <separator name="response functions" >
   <i type="logical" name="LFINITE_TEMPERATURE"> F  </i>
   <i type="logical" name="LADDER"> F  </i>
   <i type="logical" name="LRPAFORCE"> F  </i>
   <i type="logical" name="LFXC"> F  </i>
   <i type="logical" name="LHARTREE"> T  </i>
   <i type="int" name="IBSE">     0</i>
   <v type="int" name="KPOINT">    -1     0     0     0</v>
   <i type="logical" name="LTCTC"> F  </i>
   <i type="logical" name="LTCTE"> F  </i>
   <i type="logical" name="LTETE"> F  </i>
   <i type="logical" name="LTRIPLET"> F  </i>
   <i type="logical" name="LFXCEPS"> F  </i>
   <i type="logical" name="LFXHEG"> F  </i>
   <i type="int" name="NATURALO">     2</i>
   <i type="logical" name="LHOLEGF"> F  </i>
   <i type="logical" name="L2ORDER"> F  </i>
   <i type="logical" name="LDMP1"> F  </i>
   <i type="logical" name="LMP2LT"> F  </i>
   <i type="logical" name="LSMP2LT"> F  </i>
   <i type="logical" name="LGWLF"> F  </i>
   <i name="ENCUTGW">     -2.00000000</i>
   <i name="ENCUTGWSOFT">     -2.00000000</i>
   <i name="ENCUTLF">     -1.00000000</i>
   <i type="logical" name="LESF_SPLINES"> F  </i>
   <i type="int" name="LMAXMP2">    -1</i>
   <i name="SCISSOR">      0.00000000</i>
   <i type="int" name="NOMEGA">     0</i>
   <i type="int" name="NOMEGAR">     0</i>
   <i type="int" name="NBANDSGW">    -1</i>
   <i type="int" name="NBANDSO">    -1</i>
   <i type="int" name="NBANDSV">    -1</i>
   <i type="int" name="NELMGW">     1</i>
   <i type="int" name="NELMHF">     1</i>
   <i type="int" name="DIM">     3</i>
   <i type="int" name="IESPILON">     4</i>
   <i type="int" name="ANTIRES">     0</i>
   <i name="OMEGAMAX">    -30.00000000</i>
   <i name="OMEGAMIN">    -30.00000000</i>
   <i name="OMEGATL">   -200.00000000</i>
   <i type="int" name="OMEGAGRID">     0</i>
   <i name="CSHIFT">     -0.10000000</i>
   <i type="logical" name="LSELFENERGY"> F  </i>
   <i type="logical" name="LSPECTRAL"> F  </i>
   <i type="logical" name="LSPECTRALGW"> F  </i>
   <i type="logical" name="LSINGLES"> F  </i>
   <i type="logical" name="LFERMIGW"> F  </i>
   <i type="logical" name="ODDONLYGW"> F  </i>
   <i type="logical" name="EVENONLYGW"> F  </i>
   <i type="int" name="NKREDLFX">     1</i>
   <i type="int" name="NKREDLFY">     1</i>
   <i type="int" name="NKREDLFZ">     1</i>
   <i type="int" name="MAXMEM">  2800</i>
   <i type="int" name="TELESCOPE">     0</i>
   <i type="int" name="NTAUPAR">    -1</i>
   <i type="int" name="NOMEGAPAR">    -1</i>
   <i name="DAMP_NEWTON">      0.80000001</i>
   <i name="LAMBDA">      1.00000000</i>
  </separator>
  <separator name="External order field" >
   <i name="OFIELD_KAPPA">      0.00000000</i>
   <v name="OFIELD_K">      0.00000000      0.00000000      0.00000000</v>
   <i name="OFIELD_Q6_NEAR">      0.00000000</i>
   <i name="OFIELD_Q6_FAR">      0.00000000</i>
   <i name="OFIELD_A">      0.00000000</i>
  </separator>
  <separator name="optional k-points parameters" >
   <i type="int" name="KPOINTS_OPT_MODE">     1</i>
   <i type="logical" name="LKPOINTS_OPT"> F  </i>
  </separator>
 </parameters>
 <atominfo>
  <atoms>       1 </atoms>
  <types>       1 </types>
  <array name="atoms" >
   <dimension dim="1">ion</dimension>
   <field type="string">element</field>
   <field type="int">atomtype</field>
   <set>
    <rc><c>Si</c><c>   1</c></rc>
   </set>
  </array>
  <array name="atomtypes" >
   <dimension dim="1">type</dimension>
   <field type="int">atomspertype</field>
   <field type="string">element</field>
   <field>mass</field>
   <field>valence</field>
   <field type="string">pseudopotential</field>
   <set>
    <rc><c>   1</c><c>Si</c><c>     28.08500000</c><c>      4.00000000</c><c>  PAW_PBE Si 05Jan2001                  </c></rc>
   </set>
  </array>
 </atominfo>
 <structure name="initialpos" >
  <crystal>
   <varray name="basis" >
    <v>       0.00000000       1.95000000       1.95000000 </v>
    <v>       1.95000000       0.00000000       1.95000000 </v>
    <v>       1.95000000       1.95000000       0.00000000 </v>
   </varray>
   <i name="volume">     14.82975000 </i>
   <varray name="rec_basis" >
    <v>      -0.25641026       0.25641026       0.25641026 </v>
    <v>       0.25641026      -0.25641026       0.25641026 </v>
    <v>       0.25641026       0.25641026      -0.25641026 </v>
   </varray>
  </crystal>
  <varray name="positions" >
   <v>       0.00000000       0.00000000       0.00000000 </v>
  </varray>
 </structure>
 <calculation>
  <scstep>
   <time name="dav">    0.14    0.14</time>
   <time name="total">    0.15    0.15</time>
   <energy>
    <i name="alphaZ">      2.26997291 </i>
    <i name="ewald">   -135.42777035 </i>
    <i name="hartreedc">     -0.65300112 </i>
    <i name="XCdc">     -8.87078640 </i>
    <i name="pawpsdc">     88.12379961 </i>
    <i name="pawaedc">    -70.53051779 </i>
    <i name="eentropy">      0.00000000 </i>
    <i name="bandstr">     18.79035905 </i>
    <i name="atom">    103.06077658 </i>
    <i name="e_fr_energy">     -3.23716750 </i>
    <i name="e_wo_entrp">     -3.23716750 </i>
    <i name="e_0_energy">     -3.23716750 </i>
   </energy>
  </scstep>
  <scstep>
   <time name="dav">    0.16    0.16</time>
   <time name="total">    0.17    0.17</time>
   <energy>
    <i name="e_fr_energy">     -4.87640204 </i>
    <i name="e_wo_entrp">     -4.87640204 </i>
    <i name="e_0_energy">     -4.87640204 </i>
   </energy>
  </scstep>
  <scstep>
   <time name="dav">    0.14    0.14</time>
   <time name="total">    0.15    0.15</time>
   <energy>
    <i name="e_fr_energy">     -4.88601780 </i>
    <i name="e_wo_entrp">     -4.88601780 </i>
    <i name="e_0_energy">     -4.88601780 </i>
   </energy>
  </scstep>
  <scstep>
   <time name="dav">    0.16    0.16</time>
   <time name="total">    0.17    0.17</time>
   <energy>
    <i name="e_fr_energy">     -4.88602554 </i>
    <i name="e_wo_entrp">     -4.88602554 </i>
    <i name="e_0_energy">     -4.88602554 </i>
   </energy>
  </scstep>
  <scstep>
   <time name="dav">    0.14    0.14</time>
   <time name="total">    0.15    0.15</time>
   <energy>
    <i name="e_fr_energy">     -4.88602555 </i>
    <i name="e_wo_entrp">     -4.88602555 </i>
    <i name="e_0_energy">     -4.88602555 </i>
   </energy>
  </scstep>
  <scstep>
   <time name="dav">    0.12    0.12</time>
   <time name="total">    0.14    0.14</time>
   <energy>
    <i name="e_fr_energy">     -4.87333777 </i>
    <i name="e_wo_entrp">     -4.87333777 </i>
    <i name="e_0_energy">     -4.87333777 </i>
   </energy>
  </scstep>
  <scstep>
   <time name="dav">    0.12    0.12</time>
   <time name="total">    0.14    0.14</time>
   <energy>
    <i name="e_fr_energy">     -4.86606691 </i>
    <i name="e_wo_entrp">     -4.86606691 </i>
    <i name="e_0_energy">     -4.86606691 </i>
   </energy>
  </scstep>
  <scstep>
   <time name="dav">    0.11    0.11</time>
   <time name="total">    0.12    0.12</time>
   <energy>
    <i name="alphaZ">      2.26997291 </i>
    <i name="ewald">   -135.42777035 </i>
    <i name="hartreedc">     -0.49249843 </i>
    <i name="XCdc">     -8.81712285 </i>
    <i name="pawpsdc">    345.35665798 </i>
    <i name="pawaedc">   -327.77111485 </i>
    <i name="eentropy">      0.00000000 </i>
    <i name="bandstr">     16.95506369 </i>
    <i name="atom">    103.06077658 </i>
    <i name="e_fr_energy">     -4.86603531 </i>
    <i name="e_wo_entrp">     -4.86603531 </i>
    <i name="e_0_energy">     -4.86603531 </i>
   </energy>
  </scstep>
  <structure>
   <crystal>
    <varray name="basis" >
     <v>       0.00000000       1.95000000       1.95000000 </v>
     <v>       1.95000000       0.00000000       1.95000000 </v>
     <v>       1.95000000       1.95000000       0.00000000 </v>
    </varray>
    <i name="volume">     14.82975000 </i>
    <varray name="rec_basis" >
     <v>      -0.25641026       0.25641026       0.25641026 </v>
     <v>       0.25641026      -0.25641026       0.25641026 </v>
     <v>       0.25641026       0.25641026      -0.25641026 </v>
    </varray>
   </crystal>
   <varray name="positions" >
    <v>       0.00000000       0.00000000       0.00000000 </v>
   </varray>
  </structure>
  <varray name="forces" >
   <v>      -0.00000000       0.00000000      -0.00000000 </v>
  </varray>
  <varray name="stress" >
   <v>     -19.48527294       0.00000000       0.00000000 </v>
   <v>       0.00000000     -19.48527294       0.00000000 </v>
   <v>      -0.00000000      -0.00000000     -19.48527294 </v>
  </varray>
  <energy>
   <i name="e_fr_energy">     -4.86603531 </i>
   <i name="e_wo_entrp">     -4.86603531 </i>
   <i name="e_0_energy">     -4.86603531 </i>
  </energy>
  <time name="totalsc">    1.24    1.26</time>
  <eigenvalues>
   <array>
    <dimension dim="1">band</dimension>
    <dimension dim="2">kpoint</dimension>
    <dimension dim="3">spin</dimension>
    <field>eigene</field>
    <field>occ</field>
    <set>
     <set comment="spin 1">
      <set comment="kpoint 1">
       <r>   -4.3779    1.0000 </r>
       <r>   20.6957    0.0000 </r>
       <r>   20.6959    0.0000 </r>
       <r>   20.6959    0.0000 </r>
       <r>   21.7715    0.0000 </r>
       <r>   21.7716    0.0000 </r>
      </set>
      <set comment="kpoint 2">
       <r>   -4.2503    1.0000 </r>
       <r>   18.7124    0.0000 </r>
       <r>   20.1235    0.0000 </r>
       <r>   20.1237    0.0000 </r>
       <r>   22.5323    0.0000 </r>
       <r>   22.5324    0.0000 </r>
      </set>
      <set comment="kpoint 3">
       <r>   -3.8689    1.0000 </r>
       <r>   15.9441    0.0000 </r>
       <r>   19.3919    0.0000 </r>
       <r>   19.3920    0.0000 </r>
       <r>   22.9498    0.0000 </r>
       <r>   23.5822    0.0000 </r>
      </set>
      <set comment="kpoint 4">
       <r>   -3.2350    1.0000 </r>
       <r>   13.1569    0.0000 </r>
       <r>   18.8221    0.0000 </r>
       <r>   18.8223    0.0000 </r>
       <r>   22.8678    0.0000 </r>
       <r>   23.8284    0.0000 </r>
      </set>
      <set comment="kpoint 5">
       <r>   -2.3512    1.0000 </r>
       <r>   10.4969    0.1829 </r>
       <r>   18.4398    0.0000 </r>
       <r>   18.4400    0.0000 </r>
       <r>   22.7657    0.0000 </r>
       <r>   22.9768    0.0000 </r>
      </set>
      <set comment="kpoint 6">
       <r>   -1.2208    1.0000 </r>
       <r>    8.0157    1.0410 </r>
       <r>   18.2392    0.0000 </r>
       <r>   18.2394    0.0000 </r>
       <r>   22.0032    0.0000 </r>
       <r>   22.0038    0.0000 </r>
      </set>
      <set comment="kpoint 7">
       <r>    0.1479    1.0000 </r>
       <r>    5.7375    1.0000 </r>
       <r>   18.1765    0.0000 </r>
       <r>   18.1766    0.0000 </r>
       <r>   21.2293    0.0000 </r>
       <r>   21.2299    0.0000 </r>
      </set>
      <set comment="kpoint 8">
       <r>    1.7177    1.0000 </r>
       <r>    3.7105    1.0000 </r>
       <r>   18.1863    0.0000 </r>
       <r>   18.1864    0.0000 </r>
       <r>   20.7925    0.0000 </r>
       <r>   20.7931    0.0000 </r>
      </set>
      <set comment="kpoint 9">
       <r>   -4.2078    1.0000 </r>
       <r>   19.1688    0.0000 </r>
       <r>   19.1689    0.0000 </r>
       <r>   20.2940    0.0000 </r>
       <r>   20.8897    0.0000 </r>
       <r>   23.5606    0.0000 </r>
      </set>
      <set comment="kpoint 10">
       <r>   -3.9112    1.0000 </r>
       <r>   16.9341    0.0000 </r>
       <r>   18.3458    0.0000 </r>
       <r>   19.8405    0.0000 </r>
       <r>   21.2841    0.0000 </r>
       <r>   24.2501    0.0000 </r>
      </set>
      <set comment="kpoint 11">
       <r>   -3.3615    1.0000 </r>
       <r>   14.1637    0.0000 </r>
       <r>   17.7181    0.0000 </r>
       <r>   19.2204    0.0000 </r>
       <r>   21.9751    0.0000 </r>
       <r>   24.0734    0.0000 </r>
      </set>
      <set comment="kpoint 12">
       <r>   -2.5610    1.0000 </r>
       <r>   11.4649   -0.0621 </r>
       <r>   17.2975    0.0000 </r>
       <r>   18.6993    0.0000 </r>
       <r>   21.4851    0.0000 </r>
       <r>   23.8373    0.0000 </r>
      </set>
      <set comment="kpoint 13">
       <r>   -1.5130    1.0000 </r>
       <r>    8.9242    0.9644 </r>
       <r>   17.0894    0.0000 </r>
       <r>   18.2495    0.0000 </r>
       <r>   20.6672    0.0000 </r>
       <r>   23.6748    0.0000 </r>
      </set>
      <set comment="kpoint 14">
       <r>   -0.2225    1.0000 </r>
       <r>    6.5782    1.0000 </r>
       <r>   17.0877    0.0000 </r>
       <r>   17.7808    0.0000 </r>
       <r>   20.1460    0.0000 </r>
       <r>   22.7322    0.0000 </r>
      </set>
      <set comment="kpoint 15">
       <r>    1.2908    1.0000 </r>
       <r>    4.4568    1.0000 </r>
       <r>   17.2674    0.0000 </r>
       <r>   17.2812    0.0000 </r>
       <r>   20.0895    0.0000 </r>
       <r>   21.9671    0.0000 </r>
      </set>
      <set comment="kpoint 16">
       <r>    2.3164    1.0000 </r>
       <r>    3.2783    1.0000 </r>
       <r>   16.8062    0.0000 </r>
       <r>   17.6473    0.0000 </r>
       <r>   20.4069    0.0000 </r>
       <r>   21.4583    0.0000 </r>
      </set>
      <set comment="kpoint 17">
       <r>    0.7643    1.0000 </r>
       <r>    5.1353    1.0000 </r>
       <r>   16.4845    0.0000 </r>
       <r>   18.1500    0.0000 </r>
       <r>   21.0399    0.0000 </r>
       <r>   21.2681    0.0000 </r>
      </set>
      <set comment="kpoint 18">
       <r>   -0.6793    1.0000 </r>
       <r>    7.3365    1.0000 </r>
       <r>   16.3463    0.0000 </r>
       <r>   18.7047    0.0000 </r>
       <r>   21.4325    0.0000 </r>
       <r>   21.9117    0.0000 </r>
      </set>
      <set comment="kpoint 19">
       <r>   -1.8898    1.0000 </r>
       <r>    9.7504    0.5646 </r>
       <r>   16.4151    0.0000 </r>
       <r>   19.2472    0.0000 </r>
       <r>   21.9861    0.0000 </r>
       <r>   22.9718    0.0000 </r>
      </set>
      <set comment="kpoint 20">
       <r>   -2.8555    1.0000 </r>
       <r>   12.3489   -0.0023 </r>
       <r>   16.6930    0.0000 </r>
       <r>   19.7891    0.0000 </r>
       <r>   22.7654    0.0000 </r>
       <r>   23.4652    0.0000 </r>
      </set>
      <set comment="kpoint 21">
       <r>   -3.5727    1.0000 </r>
       <r>   15.0902    0.0000 </r>
       <r>   17.1843    0.0000 </r>
       <r>   20.3668    0.0000 </r>
       <r>   22.8583    0.0000 </r>
       <r>   23.4243    0.0000 </r>
      </set>
      <set comment="kpoint 22">
       <r>   -4.0383    1.0000 </r>
       <r>   17.7682    0.0000 </r>
       <r>   17.9536    0.0000 </r>
       <r>   20.7678    0.0000 </r>
       <r>   22.1261    0.0000 </r>
       <r>   23.0715    0.0000 </r>
      </set>
      <set comment="kpoint 23">
       <r>   -3.6994    1.0000 </r>
       <r>   17.4500    0.0000 </r>
       <r>   17.4501    0.0000 </r>
       <r>   19.2239    0.0000 </r>
       <r>   19.2543    0.0000 </r>
       <r>   23.6081    0.0000 </r>
      </set>
      <set comment="kpoint 24">
       <r>   -3.2346    1.0000 </r>
       <r>   15.3122    0.0000 </r>
       <r>   16.7514    0.0000 </r>
       <r>   18.5001    0.0000 </r>
       <r>   19.6782    0.0000 </r>
       <r>   22.2536    0.0000 </r>
      </set>
      <set comment="kpoint 25">
       <r>   -2.5186    1.0000 </r>
       <r>   12.6343    0.0000 </r>
       <r>   16.2666    0.0000 </r>
       <r>   17.7621    0.0000 </r>
       <r>   19.6581    0.0000 </r>
       <r>   22.5281    0.0000 </r>
      </set>
      <set comment="kpoint 26">
       <r>   -1.5538    1.0000 </r>
       <r>   10.0552    0.4048 </r>
       <r>   15.9994    0.0000 </r>
       <r>   16.9518    0.0000 </r>
       <r>   19.0903    0.0000 </r>
       <r>   23.9595    0.0000 </r>
      </set>
      <set comment="kpoint 27">
       <r>   -0.3452    1.0000 </r>
       <r>    7.6509    1.0036 </r>
       <r>   15.9448    0.0000 </r>
       <r>   16.0787    0.0000 </r>
       <r>   18.8154    0.0000 </r>
       <r>   24.6950    0.0000 </r>
      </set>
      <set comment="kpoint 28">
       <r>    1.0963    1.0000 </r>
       <r>    5.4555    1.0000 </r>
       <r>   15.2704    0.0000 </r>
       <r>   16.1093    0.0000 </r>
       <r>   18.9009    0.0000 </r>
       <r>   23.8656    0.0000 </r>
      </set>
      <set comment="kpoint 29">
       <r>    2.6496    1.0000 </r>
       <r>    3.5985    1.0000 </r>
       <r>   14.6146    0.0000 </r>
       <r>   16.4829    0.0000 </r>
       <r>   19.2791    0.0000 </r>
       <r>   23.2343    0.0000 </r>
      </set>
      <set comment="kpoint 30">
       <r>    1.6216    1.0000 </r>
       <r>    4.7777    1.0000 </r>
       <r>   14.1531    0.0000 </r>
       <r>   17.0536    0.0000 </r>
       <r>   19.9099    0.0000 </r>
       <r>   22.8069    0.0000 </r>
      </set>
      <set comment="kpoint 31">
       <r>    0.1103    1.0000 </r>
       <r>    6.8929    1.0000 </r>
       <r>   13.9060    0.0000 </r>
       <r>   17.8040    0.0000 </r>
       <r>   20.7716    0.0000 </r>
       <r>   22.6458    0.0000 </r>
      </set>
      <set comment="kpoint 32">
       <r>   -1.1780    1.0000 </r>
       <r>    9.2285    0.8418 </r>
       <r>   13.8816    0.0000 </r>
       <r>   18.6953    0.0000 </r>
       <r>   21.8574    0.0000 </r>
       <r>   22.7661    0.0000 </r>
      </set>
      <set comment="kpoint 33">
       <r>   -2.2248    1.0000 </r>
       <r>   11.7418   -0.0450 </r>
       <r>   14.0937    0.0000 </r>
       <r>   19.6417    0.0000 </r>
       <r>   23.0939    0.0000 </r>
       <r>   23.1338    0.0000 </r>
      </set>
      <set comment="kpoint 34">
       <r>   -3.0240    1.0000 </r>
       <r>   14.1909    0.0000 </r>
       <r>   14.7359    0.0000 </r>
       <r>   20.4264    0.0000 </r>
       <r>   23.1076    0.0000 </r>
       <r>   24.1597    0.0000 </r>
      </set>
      <set comment="kpoint 35">
       <r>   -2.8549    1.0000 </r>
       <r>   15.9828    0.0000 </r>
       <r>   15.9829    0.0000 </r>
       <r>   17.5063    0.0000 </r>
       <r>   17.6971    0.0000 </r>
       <r>   20.5775    0.0000 </r>
      </set>
      <set comment="kpoint 36">
       <r>   -2.2239    1.0000 </r>
       <r>   13.9378    0.0000 </r>
       <r>   15.4271    0.0000 </r>
       <r>   16.4457    0.0000 </r>
       <r>   17.9167    0.0000 </r>
       <r>   20.0894    0.0000 </r>
      </set>
      <set comment="kpoint 37">
       <r>   -1.3437    1.0000 </r>
       <r>   11.3857   -0.0604 </r>
       <r>   15.0864    0.0000 </r>
       <r>   15.2700    0.0000 </r>
       <r>   17.8080    0.0000 </r>
       <r>   21.3077    0.0000 </r>
      </set>
      <set comment="kpoint 38">
       <r>   -0.2182    1.0000 </r>
       <r>    8.9450    0.9616 </r>
       <r>   14.1413    0.0000 </r>
       <r>   14.9699    0.0000 </r>
       <r>   17.6796    0.0000 </r>
       <r>   23.1880    0.0000 </r>
      </set>
      <set comment="kpoint 39">
       <r>    1.1439    1.0000 </r>
       <r>    6.6894    1.0000 </r>
       <r>   13.1611    0.0000 </r>
       <r>   15.0718    0.0000 </r>
       <r>   17.7691    0.0000 </r>
       <r>   25.1599    0.0000 </r>
      </set>
      <set comment="kpoint 40">
       <r>    2.7092    1.0000 </r>
       <r>    4.6735    1.0000 </r>
       <r>   12.3790   -0.0062 </r>
       <r>   15.3913    0.0000 </r>
       <r>   18.1155    0.0000 </r>
       <r>   25.3382    0.0000 </r>
      </set>
      <set comment="kpoint 41">
       <r>    2.7086    1.0000 </r>
       <r>    4.6725    1.0000 </r>
       <r>   11.8137   -0.0409 </r>
       <r>   15.9236    0.0000 </r>
       <r>   18.7031    0.0000 </r>
       <r>   24.8380    0.0000 </r>
      </set>
      <set comment="kpoint 42">
       <r>    1.1428    1.0000 </r>
       <r>    6.6834    1.0000 </r>
       <r>   11.4791   -0.0534 </r>
       <r>   16.6597    0.0000 </r>
       <r>   19.5206    0.0000 </r>
       <r>   24.5585    0.0000 </r>
      </set>
      <set comment="kpoint 43">
       <r>   -0.2195    1.0000 </r>
       <r>    8.9181    1.0230 </r>
       <r>   11.3933   -0.0191 </r>
       <r>   17.5783    0.0000 </r>
       <r>   20.5582    0.0000 </r>
       <r>   24.4914    0.0000 </r>
      </set>
      <set comment="kpoint 44">
       <r>   -1.3447    1.0000 </r>
       <r>   11.0679   -0.0667 </r>
       <r>   11.8162    0.0000 </r>
       <r>   18.6318    0.0000 </r>
       <r>   21.7734    0.0000 </r>
       <r>   24.6590    0.0000 </r>
      </set>
      <set comment="kpoint 45">
       <r>   -1.6775    1.0000 </r>
       <r>   14.7960    0.0000 </r>
       <r>   14.7961    0.0000 </r>
       <r>   14.8947    0.0000 </r>
       <r>   16.3777    0.0000 </r>
       <r>   18.6865    0.0000 </r>
      </set>
      <set comment="kpoint 46">
       <r>   -0.8830    1.0000 </r>
       <r>   12.7937    0.0000 </r>
       <r>   13.6090    0.0000 </r>
       <r>   14.3865    0.0000 </r>
       <r>   16.6561    0.0000 </r>
       <r>   18.8393    0.0000 </r>
      </set>
      <set comment="kpoint 47">
       <r>    0.1570    1.0000 </r>
       <r>   10.4187    0.2094 </r>
       <r>   12.2874    0.0000 </r>
       <r>   14.1980    0.0000 </r>
       <r>   16.7292    0.0000 </r>
       <r>   20.4280    0.0000 </r>
      </set>
      <set comment="kpoint 48">
       <r>    1.4364    1.0000 </r>
       <r>    8.1363    1.0450 </r>
       <r>   11.1720   -0.0420 </r>
       <r>   14.2306    0.0000 </r>
       <r>   16.8212    0.0000 </r>
       <r>   22.5302    0.0000 </r>
      </set>
      <set comment="kpoint 49">
       <r>    2.9381    1.0000 </r>
       <r>    6.0476    1.0000 </r>
       <r>   10.2800    0.2704 </r>
       <r>   14.4839    0.0000 </r>
       <r>   17.1166    0.0000 </r>
       <r>   24.8371    0.0000 </r>
      </set>
      <set comment="kpoint 50">
       <r>    3.9714    1.0000 </r>
       <r>    4.8620    1.0000 </r>
       <r>    9.6230    0.6403 </r>
       <r>   14.9552    0.0000 </r>
       <r>   17.6464    0.0000 </r>
       <r>   27.0893    0.0000 </r>
      </set>
      <set comment="kpoint 51">
       <r>    2.4127    1.0000 </r>
       <r>    6.6923    1.0000 </r>
       <r>    9.2220    0.8525 </r>
       <r>   15.6387    0.0000 </r>
       <r>   18.4061    0.0000 </r>
       <r>   26.7003    0.0000 </r>
      </set>
      <set comment="kpoint 52">
       <r>    0.9805    1.0000 </r>
       <r>    8.5314    1.0000 </r>
       <r>    9.3646    0.6239 </r>
       <r>   16.5236    0.0000 </r>
       <r>   19.3857    0.0000 </r>
       <r>   26.3075    0.0000 </r>
      </set>
      <set comment="kpoint 53">
       <r>   -0.1746    1.0000 </r>
       <r>   11.8874   -0.0329 </r>
       <r>   13.9039    0.0000 </r>
       <r>   13.9040    0.0000 </r>
       <r>   15.3843    0.0000 </r>
       <r>   17.5839    0.0000 </r>
      </set>
      <set comment="kpoint 54">
       <r>    0.7791    1.0000 </r>
       <r>   10.4563    0.1911 </r>
       <r>   12.1659    0.0000 </r>
       <r>   13.6425    0.0000 </r>
       <r>   15.8140    0.0000 </r>
       <r>   18.0296    0.0000 </r>
      </set>
      <set comment="kpoint 55">
       <r>    1.9725    1.0000 </r>
       <r>    9.1551    1.0100 </r>
       <r>    9.9943    0.2431 </r>
       <r>   13.6032    0.0000 </r>
       <r>   16.0538    0.0000 </r>
       <r>   19.8409    0.0000 </r>
[...]
        <r>  0.0000  0.0000  0.3383  0.0000  0.0000  0.0000  0.0000  0.0000  0.0000 </r>
       </set>
       <set comment="band 3">
        <r>  0.1867  0.0923  0.0000  0.0757  0.0000  0.0000  0.0000  0.0000  0.0000 </r>
       </set>
       <set comment="band 4">
        <r>  0.0479  0.1452  0.0000  0.1918  0.0000  0.0000  0.0000  0.0000  0.0000 </r>
       </set>
       <set comment="band 5">
        <r>  0.0764  0.0947  0.0000  0.0371  0.0000  0.0000  0.0000  0.0000  0.0000 </r>
       </set>
       <set comment="band 6">
        <r>  0.0179  0.1502  0.0000  0.0886  0.0000  0.0000  0.0000  0.0000  0.0000 </r>
       </set>
      </set>
      <set comment="kpoint 99">
       <set comment="band 1">
        <r>  0.1779  0.0019  0.2096  0.0000  0.0000  0.0000  0.0000  0.0000  0.0000 </r>
       </set>
       <set comment="band 2">
        <r>  0.2825  0.0023  0.1429  0.0000  0.0000  0.0000  0.0000  0.0000  0.0000 </r>
       </set>
       <set comment="band 3">
        <r>  0.0000  0.0000  0.0000  0.3237  0.0000  0.0000  0.0000  0.0000  0.0000 </r>
       </set>
       <set comment="band 4">
        <r>  0.0756  0.3512  0.0002  0.0000  0.0000  0.0000  0.0000  0.0000  0.0000 </r>
       </set>
       <set comment="band 5">
        <r>  0.0000  0.0000  0.0000  0.1480  0.0000  0.0000  0.0000  0.0000  0.0000 </r>
       </set>
       <set comment="band 6">
        <r>  0.1916  0.1216  0.0017  0.0000  0.0000  0.0000  0.0000  0.0000  0.0000 </r>
       </set>
      </set>
      <set comment="kpoint 100">
       <set comment="band 1">
        <r>  0.0000  0.0000  0.3491  0.0000  0.0000  0.0000  0.0000  0.0000  0.0000 </r>
       </set>
       <set comment="band 2">
        <r>  0.4659  0.0086  0.0000  0.0006  0.0000  0.0000  0.0000  0.0000  0.0000 </r>
       </set>
       <set comment="band 3">
        <r>  0.0414  0.0969  0.0000  0.1934  0.0000  0.0000  0.0000  0.0000  0.0000 </r>
       </set>
       <set comment="band 4">
        <r>  0.0590  0.2061  0.0000  0.1286  0.0000  0.0000  0.0000  0.0000  0.0000 </r>
       </set>
       <set comment="band 5">
        <r>  0.0533  0.0340  0.0000  0.0959  0.0000  0.0000  0.0000  0.0000  0.0000 </r>
       </set>
       <set comment="band 6">
        <r>  0.1003  0.1384  0.0000  0.0534  0.0000  0.0000  0.0000  0.0000  0.0000 </r>
       </set>
      </set>
      <set comment="kpoint 101">
       <set comment="band 1">
        <r>  0.3140  0.0149  0.0633  0.0000  0.0000  0.0000  0.0000  0.0000  0.0000 </r>
       </set>
       <set comment="band 2">
        <r>  0.0000  0.0000  0.0000  0.2996  0.0000  0.0000  0.0000  0.0000  0.0000 </r>
       </set>
       <set comment="band 3">
        <r>  0.1846  0.1930  0.0994  0.0000  0.0000  0.0000  0.0000  0.0000  0.0000 </r>
       </set>
       <set comment="band 4">
        <r>  0.0520  0.0808  0.2504  0.0000  0.0000  0.0000  0.0000  0.0000  0.0000 </r>
       </set>
       <set comment="band 5">
        <r>  0.0000  0.0000  0.0000  0.1427  0.0000  0.0000  0.0000  0.0000  0.0000 </r>
       </set>
       <set comment="band 6">
        <r>  0.0391  0.2310  0.0522  0.0000  0.0000  0.0000  0.0000  0.0000  0.0000 </r>
       </set>
      </set>
      <set comment="kpoint 102">
       <set comment="band 1">
        <r>  0.2944  0.0219  0.0773  0.0008  0.0000  0.0000  0.0000  0.0000  0.0000 </r>
       </set>
       <set comment="band 2">
        <r>  0.0875  0.0591  0.0279  0.1838  0.0000  0.0000  0.0000  0.0000  0.0000 </r>
       </set>
       <set comment="band 3">
        <r>  0.1376  0.1026  0.0609  0.1237  0.0000  0.0000  0.0000  0.0000  0.0000 </r>
       </set>
       <set comment="band 4">
        <r>  0.0508  0.0826  0.2240  0.0000  0.0000  0.0000  0.0000  0.0000  0.0000 </r>
       </set>
       <set comment="band 5">
        <r>  0.0179  0.1101  0.0183  0.0761  0.0000  0.0000  0.0000  0.0000  0.0000 </r>
       </set>
       <set comment="band 6">
        <r>  0.0005  0.2102  0.0317  0.0517  0.0000  0.0000  0.0000  0.0000  0.0000 </r>
       </set>
      </set>
      <set comment="kpoint 103">
       <set comment="band 1">
        <r>  0.2765  0.0285  0.0906  0.0025  0.0000  0.0000  0.0000  0.0000  0.0000 </r>
       </set>
       <set comment="band 2">
        <r>  0.1242  0.0635  0.0280  0.1515  0.0000  0.0000  0.0000  0.0000  0.0000 </r>
       </set>
       <set comment="band 3">
        <r>  0.1387  0.0646  0.0598  0.1670  0.0000  0.0000  0.0000  0.0000  0.0000 </r>
       </set>
       <set comment="band 4">
        <r>  0.0444  0.0976  0.1932  0.0005  0.0000  0.0000  0.0000  0.0000  0.0000 </r>
       </set>
       <set comment="band 5">
        <r>  0.0154  0.1792  0.0224  0.0525  0.0000  0.0000  0.0000  0.0000  0.0000 </r>
       </set>
       <set comment="band 6">
        <r>  0.0437  0.1036  0.0147  0.0085  0.0000  0.0000  0.0000  0.0000  0.0000 </r>
       </set>
      </set>
      <set comment="kpoint 104">
       <set comment="band 1">
        <r>  0.2907  0.0269  0.0945  0.0014  0.0000  0.0000  0.0000  0.0000  0.0000 </r>
       </set>
       <set comment="band 2">
        <r>  0.1167  0.0677  0.0342  0.1380  0.0000  0.0000  0.0000  0.0000  0.0000 </r>
       </set>
       <set comment="band 3">
        <r>  0.1678  0.0183  0.0979  0.1841  0.0000  0.0000  0.0000  0.0000  0.0000 </r>
       </set>
       <set comment="band 4">
        <r>  0.0156  0.1361  0.1279  0.0141  0.0000  0.0000  0.0000  0.0000  0.0000 </r>
       </set>
       <set comment="band 5">
        <r>  0.0034  0.2462  0.0279  0.0395  0.0000  0.0000  0.0000  0.0000  0.0000 </r>
       </set>
       <set comment="band 6">
        <r>  0.0711  0.0167  0.0098  0.0048  0.0000  0.0000  0.0000  0.0000  0.0000 </r>
       </set>
      </set>
      <set comment="kpoint 105">
       <set comment="band 1">
        <r>  0.2849  0.0135  0.0962  0.0000  0.0000  0.0000  0.0000  0.0000  0.0000 </r>
       </set>
       <set comment="band 2">
        <r>  0.0000  0.0000  0.0000  0.3064  0.0000  0.0000  0.0000  0.0000  0.0000 </r>
       </set>
       <set comment="band 3">
        <r>  0.2496  0.1605  0.1076  0.0000  0.0000  0.0000  0.0000  0.0000  0.0000 </r>
       </set>
       <set comment="band 4">
        <r>  0.0384  0.1006  0.1699  0.0000  0.0000  0.0000  0.0000  0.0000  0.0000 </r>
       </set>
       <set comment="band 5">
        <r>  0.0000  0.0000  0.0000  0.1496  0.0000  0.0000  0.0000  0.0000  0.0000 </r>
       </set>
       <set comment="band 6">
        <r>  0.0766  0.2255  0.0342  0.0000  0.0000  0.0000  0.0000  0.0000  0.0000 </r>
       </set>
      </set>
      <set comment="kpoint 106">
       <set comment="band 1">
        <r>  0.2645  0.0192  0.1125  0.0006  0.0000  0.0000  0.0000  0.0000  0.0000 </r>
       </set>
       <set comment="band 2">
        <r>  0.1033  0.0579  0.0219  0.1848  0.0000  0.0000  0.0000  0.0000  0.0000 </r>
       </set>
       <set comment="band 3">
        <r>  0.2086  0.0471  0.1056  0.1181  0.0000  0.0000  0.0000  0.0000  0.0000 </r>
       </set>
       <set comment="band 4">
        <r>  0.0160  0.1307  0.1202  0.0110  0.0000  0.0000  0.0000  0.0000  0.0000 </r>
       </set>
       <set comment="band 5">
        <r>  0.0293  0.0902  0.0083  0.0863  0.0000  0.0000  0.0000  0.0000  0.0000 </r>
       </set>
       <set comment="band 6">
        <r>  0.0240  0.1946  0.0199  0.0570  0.0000  0.0000  0.0000  0.0000  0.0000 </r>
       </set>
      </set>
      <set comment="kpoint 107">
       <set comment="band 1">
        <r>  0.2544  0.0219  0.1264  0.0011  0.0000  0.0000  0.0000  0.0000  0.0000 </r>
       </set>
       <set comment="band 2">
        <r>  0.1277  0.0648  0.0218  0.1535  0.0000  0.0000  0.0000  0.0000  0.0000 </r>
       </set>
       <set comment="band 3">
        <r>  0.2050  0.0039  0.1852  0.0692  0.0000  0.0000  0.0000  0.0000  0.0000 </r>
       </set>
       <set comment="band 4">
        <r>  0.0166  0.1535  0.0140  0.1028  0.0000  0.0000  0.0000  0.0000  0.0000 </r>
       </set>
       <set comment="band 5">
        <r>  0.0341  0.1436  0.0077  0.0599  0.0000  0.0000  0.0000  0.0000  0.0000 </r>
       </set>
       <set comment="band 6">
        <r>  0.0046  0.1950  0.0313  0.0272  0.0000  0.0000  0.0000  0.0000  0.0000 </r>
       </set>
      </set>
      <set comment="kpoint 108">
       <set comment="band 1">
        <r>  0.3361  0.0171  0.0067  0.0846  0.0000  0.0000  0.0000  0.0000  0.0000 </r>
       </set>
       <set comment="band 2">
        <r>  0.0444  0.0694  0.1583  0.0543  0.0000  0.0000  0.0000  0.0000  0.0000 </r>
       </set>
       <set comment="band 3">
        <r>  0.1760  0.0374  0.1691  0.0403  0.0000  0.0000  0.0000  0.0000  0.0000 </r>
       </set>
       <set comment="band 4">
        <r>  0.0508  0.1157  0.0004  0.1620  0.0000  0.0000  0.0000  0.0000  0.0000 </r>
       </set>
       <set comment="band 5">
        <r>  0.0290  0.1867  0.0058  0.0461  0.0000  0.0000  0.0000  0.0000  0.0000 </r>
       </set>
       <set comment="band 6">
        <r>  0.0347  0.0843  0.0462  0.0005  0.0000  0.0000  0.0000  0.0000  0.0000 </r>
       </set>
      </set>
      <set comment="kpoint 109">
       <set comment="band 1">
        <r>  0.2600  0.0356  0.0004  0.1054  0.0000  0.0000  0.0000  0.0000  0.0000 </r>
       </set>
       <set comment="band 2">
        <r>  0.1009  0.0420  0.1984  0.0190  0.0000  0.0000  0.0000  0.0000  0.0000 </r>
       </set>
       <set comment="band 3">
        <r>  0.1836  0.0690  0.1238  0.0421  0.0000  0.0000  0.0000  0.0000  0.0000 </r>
       </set>
       <set comment="band 4">
        <r>  0.0582  0.0942  0.0000  0.1900  0.0000  0.0000  0.0000  0.0000  0.0000 </r>
       </set>
       <set comment="band 5">
        <r>  0.0174  0.2386  0.0044  0.0390  0.0000  0.0000  0.0000  0.0000  0.0000 </r>
       </set>
       <set comment="band 6">
        <r>  0.0341  0.0222  0.0747  0.0001  0.0000  0.0000  0.0000  0.0000  0.0000 </r>
       </set>
      </set>
      <set comment="kpoint 110">
       <set comment="band 1">
        <r>  0.2751  0.0295  0.0000  0.0922  0.0000  0.0000  0.0000  0.0000  0.0000 </r>
       </set>
       <set comment="band 2">
        <r>  0.0000  0.0000  0.3127  0.0000  0.0000  0.0000  0.0000  0.0000  0.0000 </r>
       </set>
       <set comment="band 3">
        <r>  0.2591  0.1355  0.0000  0.0713  0.0000  0.0000  0.0000  0.0000  0.0000 </r>
       </set>
       <set comment="band 4">
        <r>  0.0564  0.0834  0.0000  0.2086  0.0000  0.0000  0.0000  0.0000  0.0000 </r>
       </set>
       <set comment="band 5">
        <r>  0.0019  0.3155  0.0000  0.0415  0.0000  0.0000  0.0000  0.0000  0.0000 </r>
       </set>
       <set comment="band 6">
        <r>  0.0000  0.0000  0.1377  0.0000  0.0000  0.0000  0.0000  0.0000  0.0000 </r>
       </set>
      </set>
      <set comment="kpoint 111">
       <set comment="band 1">
        <r>  0.2483  0.0115  0.1362  0.0000  0.0000  0.0000  0.0000  0.0000  0.0000 </r>
       </set>
       <set comment="band 2">
        <r>  0.2871  0.0024  0.2139  0.0000  0.0000  0.0000  0.0000  0.0000  0.0000 </r>
       </set>
       <set comment="band 3">
        <r>  0.0000  0.0000  0.0000  0.3108  0.0000  0.0000  0.0000  0.0000  0.0000 </r>
       </set>
       <set comment="band 4">
        <r>  0.0516  0.2581  0.0049  0.0000  0.0000  0.0000  0.0000  0.0000  0.0000 </r>
       </set>
       <set comment="band 5">
        <r>  0.0000  0.0000  0.0000  0.1545  0.0000  0.0000  0.0000  0.0000  0.0000 </r>
       </set>
       <set comment="band 6">
        <r>  0.1016  0.2245  0.0134  0.0000  0.0000  0.0000  0.0000  0.0000  0.0000 </r>
       </set>
      </set>
      <set comment="kpoint 112">
       <set comment="band 1">
        <r>  0.2252  0.0145  0.1579  0.0003  0.0000  0.0000  0.0000  0.0000  0.0000 </r>
       </set>
       <set comment="band 2">
        <r>  0.1926  0.0364  0.0513  0.1434  0.0000  0.0000  0.0000  0.0000  0.0000 </r>
       </set>
       <set comment="band 3">
        <r>  0.1208  0.0341  0.1364  0.0736  0.0000  0.0000  0.0000  0.0000  0.0000 </r>
       </set>
       <set comment="band 4">
        <r>  0.0665  0.1672  0.0003  0.1014  0.0000  0.0000  0.0000  0.0000  0.0000 </r>
       </set>
       <set comment="band 5">
        <r>  0.0347  0.0831  0.0019  0.0904  0.0000  0.0000  0.0000  0.0000  0.0000 </r>
       </set>
       <set comment="band 6">
        <r>  0.0412  0.1862  0.0052  0.0565  0.0000  0.0000  0.0000  0.0000  0.0000 </r>
       </set>
      </set>
      <set comment="kpoint 113">
       <set comment="band 1">
        <r>  0.2722  0.0030  0.1538  0.0052  0.0000  0.0000  0.0000  0.0000  0.0000 </r>
       </set>
       <set comment="band 2">
        <r>  0.0884  0.0623  0.0638  0.1374  0.0000  0.0000  0.0000  0.0000  0.0000 </r>
       </set>
       <set comment="band 3">
        <r>  0.1825  0.0508  0.1195  0.0379  0.0000  0.0000  0.0000  0.0000  0.0000 </r>
       </set>
       <set comment="band 4">
        <r>  0.0703  0.1255  0.0000  0.1493  0.0000  0.0000  0.0000  0.0000  0.0000 </r>
       </set>
       <set comment="band 5">
        <r>  0.0408  0.1312  0.0008  0.0613  0.0000  0.0000  0.0000  0.0000  0.0000 </r>
       </set>
       <set comment="band 6">
        <r>  0.0068  0.2001  0.0041  0.0640  0.0000  0.0000  0.0000  0.0000  0.0000 </r>
       </set>
      </set>
      <set comment="kpoint 114">
       <set comment="band 1">
        <r>  0.2536  0.0391  0.0000  0.1182  0.0000  0.0000  0.0000  0.0000  0.0000 </r>
       </set>
       <set comment="band 2">
        <r>  0.0000  0.0000  0.3286  0.0000  0.0000  0.0000  0.0000  0.0000  0.0000 </r>
       </set>
       <set comment="band 3">
        <r>  0.2920  0.0941  0.0000  0.0498  0.0000  0.0000  0.0000  0.0000  0.0000 </r>
       </set>
       <set comment="band 4">
        <r>  0.0669  0.1044  0.0000  0.1748  0.0000  0.0000  0.0000  0.0000  0.0000 </r>
       </set>
       <set comment="band 5">
        <r>  0.0354  0.1710  0.0000  0.0461  0.0000  0.0000  0.0000  0.0000  0.0000 </r>
       </set>
       <set comment="band 6">
        <r>  0.0000  0.0000  0.1247  0.0000  0.0000  0.0000  0.0000  0.0000  0.0000 </r>
       </set>
      </set>
      <set comment="kpoint 115">
       <set comment="band 1">
        <r>  0.1789  0.0073  0.2045  0.0000  0.0000  0.0000  0.0000  0.0000  0.0000 </r>
       </set>
       <set comment="band 2">
        <r>  0.2959  0.0070  0.1428  0.0000  0.0000  0.0000  0.0000  0.0000  0.0000 </r>
       </set>
       <set comment="band 3">
        <r>  0.0000  0.0000  0.0000  0.3139  0.0000  0.0000  0.0000  0.0000  0.0000 </r>
       </set>
       <set comment="band 4">
        <r>  0.1200  0.2574  0.0000  0.0000  0.0000  0.0000  0.0000  0.0000  0.0000 </r>
       </set>
       <set comment="band 5">
        <r>  0.0000  0.0000  0.0000  0.1549  0.0000  0.0000  0.0000  0.0000  0.0000 </r>
       </set>
       <set comment="band 6">
        <r>  0.1127  0.2240  0.0016  0.0000  0.0000  0.0000  0.0000  0.0000  0.0000 </r>
       </set>
      </set>
      <set comment="kpoint 116">
       <set comment="band 1">
        <r>  0.0000  0.0000  0.3420  0.0000  0.0000  0.0000  0.0000  0.0000  0.0000 </r>
       </set>
       <set comment="band 2">
        <r>  0.5064  0.0136  0.0000  0.0009  0.0000  0.0000  0.0000  0.0000  0.0000 </r>
       </set>
       <set comment="band 3">
        <r>  0.0160  0.0801  0.0000  0.2094  0.0000  0.0000  0.0000  0.0000  0.0000 </r>
       </set>
       <set comment="band 4">
        <r>  0.0874  0.1582  0.0000  0.1097  0.0000  0.0000  0.0000  0.0000  0.0000 </r>
       </set>
       <set comment="band 5">
        <r>  0.0361  0.0814  0.0000  0.0919  0.0000  0.0000  0.0000  0.0000  0.0000 </r>
       </set>
       <set comment="band 6">
        <r>  0.0467  0.1832  0.0000  0.0565  0.0000  0.0000  0.0000  0.0000  0.0000 </r>
       </set>
      </set>
      <set comment="kpoint 117">
       <set comment="band 1">
        <r>  0.2447  0.0244  0.1299  0.0000  0.0000  0.0000  0.0000  0.0000  0.0000 </r>
       </set>
       <set comment="band 2">
        <r>  0.0000  0.0000  0.0000  0.3188  0.0000  0.0000  0.0000  0.0000  0.0000 </r>
       </set>
       <set comment="band 3">
        <r>  0.3278  0.1003  0.0770  0.0000  0.0000  0.0000  0.0000  0.0000  0.0000 </r>
       </set>
       <set comment="band 4">
        <r>  0.0381  0.1142  0.1417  0.0000  0.0000  0.0000  0.0000  0.0000  0.0000 </r>
       </set>
       <set comment="band 5">
        <r>  0.0000  0.0000  0.0000  0.1420  0.0000  0.0000  0.0000  0.0000  0.0000 </r>
       </set>
       <set comment="band 6">
        <r>  0.0195  0.3478  0.0260  0.0000  0.0000  0.0000  0.0000  0.0000  0.0000 </r>
       </set>
      </set>
      <set comment="kpoint 118">
       <set comment="band 1">
        <r>  0.2465  0.0231  0.1433  0.0001  0.0000  0.0000  0.0000  0.0000  0.0000 </r>
       </set>
       <set comment="band 2">
        <r>  0.0968  0.0431  0.0207  0.1981  0.0000  0.0000  0.0000  0.0000  0.0000 </r>
       </set>
       <set comment="band 3">
        <r>  0.2607  0.0199  0.0772  0.1179  0.0000  0.0000  0.0000  0.0000  0.0000 </r>
       </set>
       <set comment="band 4">
        <r>  0.0158  0.1460  0.0963  0.0113  0.0000  0.0000  0.0000  0.0000  0.0000 </r>
       </set>
       <set comment="band 5">
        <r>  0.0025  0.2654  0.0203  0.0389  0.0000  0.0000  0.0000  0.0000  0.0000 </r>
       </set>
       <set comment="band 6">
        <r>  0.0247  0.0396  0.0281  0.0547  0.0000  0.0000  0.0000  0.0000  0.0000 </r>
       </set>
      </set>
      <set comment="kpoint 119">
       <set comment="band 1">
        <r>  0.1910  0.0143  0.1936  0.0000  0.0000  0.0000  0.0000  0.0000  0.0000 </r>
       </set>
       <set comment="band 2">
        <r>  0.3702  0.0011  0.1403  0.0000  0.0000  0.0000  0.0000  0.0000  0.0000 </r>
       </set>
       <set comment="band 3">
        <r>  0.0000  0.0000  0.0000  0.3212  0.0000  0.0000  0.0000  0.0000  0.0000 </r>
       </set>
       <set comment="band 4">
        <r>  0.0599  0.2209  0.0051  0.0000  0.0000  0.0000  0.0000  0.0000  0.0000 </r>
       </set>
       <set comment="band 5">
        <r>  0.0000  0.0000  0.0000  0.1451  0.0000  0.0000  0.0000  0.0000  0.0000 </r>
       </set>
       <set comment="band 6">
        <r>  0.0447  0.3258  0.0029  0.0000  0.0000  0.0000  0.0000  0.0000  0.0000 </r>
       </set>
      </set>
      <set comment="kpoint 120">
       <set comment="band 1">
        <r>  0.2985  0.0113  0.0000  0.1468  0.0000  0.0000  0.0000  0.0000  0.0000 </r>
       </set>
       <set comment="band 2">
        <r>  0.0000  0.0000  0.3323  0.0000  0.0000  0.0000  0.0000  0.0000  0.0000 </r>
       </set>
       <set comment="band 3">
        <r>  0.2760  0.0634  0.0000  0.0951  0.0000  0.0000  0.0000  0.0000  0.0000 </r>
       </set>
       <set comment="band 4">
        <r>  0.0510  0.1558  0.0000  0.0868  0.0000  0.0000  0.0000  0.0000  0.0000 </r>
       </set>
       <set comment="band 5">
        <r>  0.0142  0.2015  0.0000  0.0625  0.0000  0.0000  0.0000  0.0000  0.0000 </r>
       </set>
       <set comment="band 6">
        <r>  0.0000  0.2042  0.0000  0.0630  0.0000  0.0000  0.0000  0.0000  0.0000 </r>
       </set>
      </set>
     </set>
    </set>
   </array>
  </projected>
 </calculation>
 <structure name="finalpos" >
  <crystal>
   <varray name="basis" >
    <v>       0.00000000       1.95000000       1.95000000 </v>
    <v>       1.95000000       0.00000000       1.95000000 </v>
    <v>       1.95000000       1.95000000       0.00000000 </v>
   </varray>
   <i name="volume">     14.82975000 </i>
   <varray name="rec_basis" >
    <v>      -0.25641026       0.25641026       0.25641026 </v>
    <v>       0.25641026      -0.25641026       0.25641026 </v>
    <v>       0.25641026       0.25641026      -0.25641026 </v>
   </varray>
  </crystal>
  <varray name="positions" >
   <v>       0.00000000       0.00000000       0.00000000 </v>
  </varray>
 </structure>
</modeling>
