   1   1   1   0
  0.1482975E+02  0.2757716E-09  0.2757716E-09  0.2757716E-09  0.5000000E-15
   1.0000000000000000E-004
  CAR 
 fcc Si                                  
     28.72473205     -5.95412409  301     12.76373764      1.00000000
     -5.954  0.0000E+00  0.0000E+00
     -5.839  0.0000E+00  0.0000E+00
     -5.723  0.0000E+00  0.0000E+00
     -5.607  0.0000E+00  0.0000E+00
     -5.492  0.0000E+00  0.0000E+00
     -5.376  0.0000E+00  0.0000E+00
     -5.261  0.0000E+00  0.0000E+00
     -5.145  0.0000E+00  0.0000E+00
     -5.029  0.0000E+00  0.0000E+00
     -4.914  0.2255E-13  0.2606E-14
     -4.798  0.1798E-08  0.2078E-09
     -4.683  0.1060E-04  0.1226E-05
     -4.567  0.4859E-02  0.5629E-03
     -4.451  0.1955E+00  0.2316E-01
     -4.336  0.9529E+00  0.1333E+00
     -4.220  0.1073E+01  0.2574E+00
     -4.105  0.4068E+00  0.3044E+00
     -3.989  0.3228E+00  0.3417E+00
     -3.873  0.5131E+00  0.4010E+00
     -3.758  0.3747E+00  0.4443E+00
     -3.642  0.1357E+00  0.4600E+00
     -3.527  0.2551E+00  0.4895E+00
     -3.411  0.1295E+00  0.5045E+00
     -3.295  0.2611E+00  0.5347E+00
     -3.180  0.3571E+00  0.5760E+00
     -3.064  0.2278E+00  0.6023E+00
     -2.949  0.2429E+00  0.6304E+00
     -2.833  0.1577E+00  0.6486E+00
     -2.717  0.1255E-01  0.6500E+00
     -2.602  0.3141E-01  0.6537E+00
     -2.486  0.2165E+00  0.6787E+00
     -2.371  0.2014E+00  0.7020E+00
     -2.255  0.2893E+00  0.7354E+00
     -2.139  0.4202E+00  0.7840E+00
     -2.024  0.1324E+00  0.7993E+00
     -1.908  0.6029E-02  0.8000E+00
     -1.793  0.2690E-04  0.8000E+00
     -1.677  0.2768E-03  0.8000E+00
     -1.561  0.2414E-01  0.8028E+00
     -1.446  0.2007E+00  0.8260E+00
     -1.330  0.2138E+00  0.8507E+00
     -1.215  0.2403E+00  0.8785E+00
     -1.099  0.3575E+00  0.9198E+00
     -0.983  0.2308E+00  0.9465E+00
     -0.868  0.2965E-01  0.9500E+00
     -0.752  0.3941E-03  0.9500E+00
     -0.637  0.4348E-06  0.9500E+00
     -0.521  0.2064E-06  0.9500E+00
     -0.406  0.2379E-03  0.9500E+00
     -0.290  0.2330E-01  0.9527E+00
     -0.174  0.2512E+00  0.9818E+00
     -0.059  0.4390E+00  0.1032E+01
      0.057  0.1446E+00  0.1049E+01
      0.172  0.1058E-01  0.1050E+01
      0.288  0.9510E-01  0.1061E+01
      0.404  0.2531E+00  0.1091E+01
      0.519  0.7817E-01  0.1100E+01
      0.635  0.2491E-02  0.1100E+01
      0.750  0.6868E-05  0.1100E+01
      0.866  0.1956E-05  0.1100E+01
      0.982  0.1089E-02  0.1100E+01
      1.097  0.5163E-01  0.1106E+01
      1.213  0.2680E+00  0.1137E+01
      1.328  0.3375E+00  0.1176E+01
      1.444  0.1889E+00  0.1198E+01
      1.560  0.1781E-01  0.1200E+01
      1.675  0.1636E-03  0.1200E+01
      1.791  0.3746E-03  0.1200E+01
      1.906  0.2865E-01  0.1203E+01
      2.022  0.2108E+00  0.1228E+01
      2.138  0.1789E+00  0.1248E+01
      2.253  0.9834E-01  0.1260E+01
      2.369  0.2536E+00  0.1289E+01
      2.484  0.9097E-01  0.1300E+01
      2.600  0.3411E-02  0.1300E+01
      2.716  0.1455E-04  0.1300E+01
      2.831  0.1772E-02  0.1300E+01
      2.947  0.8526E-01  0.1310E+01
      3.062  0.4504E+00  0.1362E+01
      3.178  0.3027E+00  0.1397E+01
      3.294  0.2482E-01  0.1400E+01
      3.409  0.2073E-03  0.1400E+01
      3.525  0.1659E-06  0.1400E+01
      3.640  0.3876E-04  0.1400E+01
      3.756  0.7467E-02  0.1401E+01
      3.872  0.1295E+00  0.1416E+01
      3.987  0.2422E+00  0.1444E+01
      4.103  0.5238E-01  0.1450E+01
      4.218  0.1471E-01  0.1452E+01
      4.334  0.1646E+00  0.1471E+01
      4.450  0.2311E+00  0.1497E+01
      4.565  0.3389E+00  0.1536E+01
      4.681  0.1057E+01  0.1659E+01
      4.796  0.7953E+00  0.1751E+01
      4.912  0.4615E+00  0.1804E+01
      5.028  0.3633E+00  0.1846E+01
      5.143  0.3209E+00  0.1883E+01
      5.259  0.3796E+00  0.1927E+01
      5.374  0.1101E+01  0.2054E+01
      5.490  0.1228E+01  0.2196E+01
      5.605  0.8039E+00  0.2289E+01
      5.721  0.8390E+00  0.2386E+01
      5.837  0.1285E+01  0.2535E+01
      5.952  0.7824E+00  0.2625E+01
      6.068  0.6081E+00  0.2695E+01
      6.183  0.4101E+00  0.2743E+01
      6.299  0.6213E-01  0.2750E+01
      6.415  0.2108E-02  0.2750E+01
      6.530  0.4659E-01  0.2755E+01
      6.646  0.2390E+00  0.2783E+01
      6.761  0.2339E+00  0.2810E+01
      6.877  0.4849E+00  0.2866E+01
      6.993  0.2884E+00  0.2900E+01
      7.108  0.2637E+00  0.2930E+01
      7.224  0.4901E+00  0.2987E+01
      7.339  0.1191E+00  0.3000E+01
      7.455  0.1245E+00  0.3015E+01
      7.571  0.2493E+00  0.3044E+01
      7.686  0.1721E+00  0.3064E+01
      7.802  0.4523E+00  0.3116E+01
      7.917  0.3072E+00  0.3151E+01
      8.033  0.2459E+00  0.3180E+01
      8.149  0.1618E+00  0.3198E+01
      8.264  0.1295E-01  0.3200E+01
      8.380  0.3060E-02  0.3200E+01
      8.495  0.1151E+00  0.3214E+01
      8.611  0.4827E+00  0.3269E+01
      8.727  0.2494E+00  0.3298E+01
      8.842  0.1487E-01  0.3300E+01
      8.958  0.7215E-02  0.3301E+01
      9.073  0.1270E+00  0.3316E+01
      9.189  0.2462E+00  0.3344E+01
      9.305  0.1494E+00  0.3361E+01
      9.420  0.4175E+00  0.3410E+01
      9.536  0.3120E+00  0.3446E+01
      9.651  0.3778E-01  0.3450E+01
      9.767  0.5544E-02  0.3451E+01
      9.883  0.1104E+00  0.3463E+01
      9.998  0.3169E+00  0.3500E+01
     10.114  0.3761E+00  0.3543E+01
     10.229  0.3596E+00  0.3585E+01
     10.345  0.1235E+00  0.3599E+01
     10.461  0.6137E-02  0.3600E+01
     10.576  0.9696E-02  0.3601E+01
     10.692  0.1441E+00  0.3618E+01
     10.807  0.2346E+00  0.3645E+01
     10.923  0.7722E-01  0.3654E+01
     11.039  0.2207E+00  0.3679E+01
     11.154  0.1649E+00  0.3698E+01
     11.270  0.1425E-01  0.3700E+01
     11.385  0.3695E-01  0.3704E+01
     11.501  0.2253E+00  0.3730E+01
     11.616  0.1579E+00  0.3749E+01
     11.732  0.4362E-01  0.3754E+01
     11.848  0.3219E+00  0.3791E+01
     11.963  0.4314E+00  0.3841E+01
     12.079  0.8150E-01  0.3850E+01
     12.194  0.8844E-01  0.3860E+01
     12.310  0.2537E+00  0.3890E+01
     12.426  0.1034E+00  0.3902E+01
     12.541  0.2727E+00  0.3933E+01
     12.657  0.4748E+00  0.3988E+01
     12.772  0.1057E+00  0.4000E+01
     12.888  0.2557E+00  0.4030E+01
     13.004  0.1526E+01  0.4206E+01
     13.119  0.1772E+01  0.4411E+01
     13.235  0.9996E+00  0.4527E+01
     13.350  0.8364E+00  0.4623E+01
     13.466  0.8494E+00  0.4722E+01
     13.582  0.4066E+00  0.4769E+01
     13.697  0.2749E+00  0.4800E+01
     13.813  0.3495E+00  0.4841E+01
     13.928  0.7272E+00  0.4925E+01
     14.044  0.7930E+00  0.5016E+01
     14.160  0.2804E+00  0.5049E+01
     14.275  0.1822E+00  0.5070E+01
     14.391  0.7614E+00  0.5158E+01
     14.506  0.8828E+00  0.5260E+01
     14.622  0.1151E+01  0.5393E+01
     14.738  0.9713E+00  0.5505E+01
     14.853  0.5956E+00  0.5574E+01
     14.969  0.3148E+00  0.5611E+01
     15.084  0.3776E+00  0.5654E+01
     15.200  0.3544E+00  0.5695E+01
     15.316  0.3335E+00  0.5734E+01
     15.431  0.5130E+00  0.5793E+01
     15.547  0.7079E+00  0.5875E+01
     15.662  0.6800E+00  0.5953E+01
     15.778  0.4455E+00  0.6005E+01
     15.894  0.4969E+00  0.6062E+01
     16.009  0.3168E+00  0.6099E+01
     16.125  0.3136E+00  0.6135E+01
     16.240  0.4659E+00  0.6189E+01
     16.356  0.3311E+00  0.6227E+01
     16.472  0.3320E+00  0.6266E+01
     16.587  0.1057E+01  0.6388E+01
     16.703  0.1713E+01  0.6586E+01
     16.818  0.1112E+01  0.6715E+01
     16.934  0.6968E+00  0.6795E+01
     17.050  0.7131E+00  0.6878E+01
     17.165  0.7947E+00  0.6969E+01
     17.281  0.5698E+00  0.7035E+01
     17.396  0.1657E+00  0.7054E+01
     17.512  0.2998E+00  0.7089E+01
     17.627  0.4001E+00  0.7135E+01
     17.743  0.1424E+00  0.7152E+01
     17.859  0.2171E+00  0.7177E+01
     17.974  0.5008E+00  0.7235E+01
     18.090  0.7366E+00  0.7320E+01
     18.205  0.1721E+01  0.7519E+01
     18.321  0.1683E+01  0.7713E+01
     18.437  0.1373E+01  0.7872E+01
     18.552  0.1096E+01  0.7999E+01
     18.668  0.8206E+00  0.8094E+01
     18.783  0.7510E+00  0.8180E+01
     18.899  0.1677E+00  0.8200E+01
     19.015  0.1957E+00  0.8222E+01
     19.130  0.1009E+01  0.8339E+01
     19.246  0.8459E+00  0.8437E+01
     19.361  0.1614E+00  0.8456E+01
     19.477  0.4277E+00  0.8505E+01
     19.593  0.8307E+00  0.8601E+01
     19.708  0.1268E+01  0.8748E+01
     19.824  0.9277E+00  0.8855E+01
     19.939  0.5664E+00  0.8920E+01
     20.055  0.2343E+00  0.8947E+01
     20.171  0.1287E+00  0.8962E+01
     20.286  0.4998E+00  0.9020E+01
     20.402  0.4410E+00  0.9071E+01
     20.517  0.3947E+00  0.9117E+01
     20.633  0.1125E+01  0.9247E+01
     20.749  0.3378E+01  0.9637E+01
     20.864  0.2008E+01  0.9869E+01
     20.980  0.6085E+00  0.9940E+01
     21.095  0.2165E+00  0.9965E+01
     21.211  0.2788E+00  0.9997E+01
     21.327  0.4189E+00  0.1005E+02
     21.442  0.5989E+00  0.1011E+02
     21.558  0.2781E+00  0.1015E+02
     21.673  0.2663E+00  0.1018E+02
     21.789  0.1551E+01  0.1036E+02
     21.905  0.1462E+01  0.1053E+02
     22.020  0.1024E+01  0.1064E+02
     22.136  0.4568E+00  0.1070E+02
     22.251  0.1697E+00  0.1072E+02
     22.367  0.6727E+00  0.1079E+02
     22.483  0.4516E+00  0.1085E+02
     22.598  0.1698E+00  0.1087E+02
     22.714  0.4259E+00  0.1092E+02
     22.829  0.9626E+00  0.1103E+02
     22.945  0.1301E+01  0.1118E+02
     23.061  0.7394E+00  0.1126E+02
     23.176  0.5139E+00  0.1132E+02
     23.292  0.6278E+00  0.1139E+02
     23.407  0.4101E+00  0.1144E+02
     23.523  0.1268E+00  0.1146E+02
     23.638  0.2483E+00  0.1149E+02
     23.754  0.1835E+00  0.1151E+02
     23.870  0.5474E+00  0.1157E+02
     23.985  0.1016E+01  0.1169E+02
     24.101  0.4914E+00  0.1174E+02
     24.216  0.5045E-01  0.1175E+02
     24.332  0.7209E-03  0.1175E+02
     24.448  0.2336E-04  0.1175E+02
     24.563  0.5400E-02  0.1175E+02
     24.679  0.1254E+00  0.1177E+02
     24.794  0.4160E+00  0.1181E+02
     24.910  0.2833E+00  0.1185E+02
     25.026  0.3442E-01  0.1185E+02
     25.141  0.4786E-03  0.1185E+02
     25.257  0.5719E-06  0.1185E+02
     25.372  0.9508E-10  0.1185E+02
     25.488  0.4884E-06  0.1185E+02
     25.604  0.4265E-03  0.1185E+02
     25.719  0.3082E-01  0.1185E+02
     25.835  0.2152E+00  0.1188E+02
     25.950  0.1709E+00  0.1190E+02
     26.066  0.1507E-01  0.1190E+02
     26.182  0.1234E-03  0.1190E+02
     26.297  0.8169E-07  0.1190E+02
     26.413  0.4078E-11  0.1190E+02
     26.528  0.0000E+00  0.1190E+02
     26.644  0.2991E-11  0.1190E+02
     26.760  0.6912E-07  0.1190E+02
     26.875  0.1244E-03  0.1190E+02
     26.991  0.1887E-01  0.1190E+02
     27.106  0.2772E+00  0.1193E+02
     27.222  0.4697E+00  0.1199E+02
     27.338  0.9706E-01  0.1200E+02
     27.453  0.2126E-02  0.1200E+02
     27.569  0.4174E-05  0.1200E+02
     27.684  0.6603E-09  0.1200E+02
     27.800  0.7924E-14  0.1200E+02
     27.916  0.0000E+00  0.1200E+02
     28.031  0.0000E+00  0.1200E+02
     28.147  0.0000E+00  0.1200E+02
     28.262  0.0000E+00  0.1200E+02
     28.378  0.0000E+00  0.1200E+02
     28.494  0.0000E+00  0.1200E+02
     28.609  0.0000E+00  0.1200E+02
     28.725  0.0000E+00  0.1200E+02
     28.72473205     -5.95412409  301     12.76373764      1.00000000
     -5.954  0.0000E+00  0.0000E+00  0.0000E+00  0.0000E+00  0.0000E+00  0.0000E+00  0.0000E+00  0.0000E+00  0.0000E+00
     -5.839  0.0000E+00  0.0000E+00  0.0000E+00  0.0000E+00  0.0000E+00  0.0000E+00  0.0000E+00  0.0000E+00  0.0000E+00
     -5.723  0.0000E+00  0.0000E+00  0.0000E+00  0.0000E+00  0.0000E+00  0.0000E+00  0.0000E+00  0.0000E+00  0.0000E+00
     -5.607  0.0000E+00  0.0000E+00  0.0000E+00  0.0000E+00  0.0000E+00  0.0000E+00  0.0000E+00  0.0000E+00  0.0000E+00
     -5.492  0.0000E+00  0.0000E+00  0.0000E+00  0.0000E+00  0.0000E+00  0.0000E+00  0.0000E+00  0.0000E+00  0.0000E+00
     -5.376  0.0000E+00  0.0000E+00  0.0000E+00  0.0000E+00  0.0000E+00  0.0000E+00  0.0000E+00  0.0000E+00  0.0000E+00
     -5.261  0.0000E+00  0.0000E+00  0.0000E+00  0.0000E+00  0.0000E+00  0.0000E+00  0.0000E+00  0.0000E+00  0.0000E+00
     -5.145  0.0000E+00  0.0000E+00  0.0000E+00  0.0000E+00  0.0000E+00  0.0000E+00  0.0000E+00  0.0000E+00  0.0000E+00
     -5.029  0.0000E+00  0.0000E+00  0.0000E+00  0.0000E+00  0.0000E+00  0.0000E+00  0.0000E+00  0.0000E+00  0.0000E+00
     -4.914  0.8655E-14  0.3350E-34  0.3350E-34  0.3350E-34  0.0000E+00  0.0000E+00  0.0000E+00  0.0000E+00  0.0000E+00
     -4.798  0.6901E-09  0.1080E-15  0.1080E-15  0.1080E-15  0.0000E+00  0.0000E+00  0.0000E+00  0.0000E+00  0.0000E+00
     -4.683  0.4070E-05  0.5018E-11  0.5018E-11  0.5018E-11  0.0000E+00  0.0000E+00  0.0000E+00  0.0000E+00  0.0000E+00
     -4.567  0.1865E-02  0.1851E-07  0.1851E-07  0.1851E-07  0.0000E+00  0.0000E+00  0.0000E+00  0.0000E+00  0.0000E+00
     -4.451  0.7504E-01  0.5944E-05  0.5944E-05  0.5944E-05  0.0000E+00  0.0000E+00  0.0000E+00  0.0000E+00  0.0000E+00
     -4.336  0.3655E+00  0.1902E-03  0.1902E-03  0.1902E-03  0.0000E+00  0.0000E+00  0.0000E+00  0.0000E+00  0.0000E+00
     -4.220  0.4106E+00  0.7156E-03  0.7156E-03  0.7156E-03  0.0000E+00  0.0000E+00  0.0000E+00  0.0000E+00  0.0000E+00
     -4.105  0.1551E+00  0.5095E-03  0.5095E-03  0.5095E-03  0.0000E+00  0.0000E+00  0.0000E+00  0.0000E+00  0.0000E+00
     -3.989  0.1215E+00  0.9973E-03  0.9973E-03  0.9973E-03  0.0000E+00  0.0000E+00  0.0000E+00  0.0000E+00  0.0000E+00
     -3.873  0.1921E+00  0.1991E-02  0.1991E-02  0.1991E-02  0.0000E+00  0.0000E+00  0.0000E+00  0.0000E+00  0.0000E+00
     -3.758  0.1399E+00  0.1606E-02  0.1606E-02  0.1606E-02  0.0000E+00  0.0000E+00  0.0000E+00  0.0000E+00  0.0000E+00
     -3.642  0.5008E-01  0.7813E-03  0.7813E-03  0.7813E-03  0.0000E+00  0.0000E+00  0.0000E+00  0.0000E+00  0.0000E+00
     -3.527  0.9358E-01  0.1680E-02  0.1680E-02  0.1680E-02  0.0000E+00  0.0000E+00  0.0000E+00  0.0000E+00  0.0000E+00
     -3.411  0.4726E-01  0.9468E-03  0.9468E-03  0.9468E-03  0.0000E+00  0.0000E+00  0.0000E+00  0.0000E+00  0.0000E+00
     -3.295  0.9413E-01  0.2328E-02  0.2328E-02  0.2328E-02  0.0000E+00  0.0000E+00  0.0000E+00  0.0000E+00  0.0000E+00
     -3.180  0.1283E+00  0.3354E-02  0.3354E-02  0.3354E-02  0.0000E+00  0.0000E+00  0.0000E+00  0.0000E+00  0.0000E+00
     -3.064  0.8141E-01  0.2275E-02  0.2275E-02  0.2275E-02  0.0000E+00  0.0000E+00  0.0000E+00  0.0000E+00  0.0000E+00
     -2.949  0.8598E-01  0.2734E-02  0.2734E-02  0.2734E-02  0.0000E+00  0.0000E+00  0.0000E+00  0.0000E+00  0.0000E+00
     -2.833  0.5577E-01  0.1793E-02  0.1793E-02  0.1793E-02  0.0000E+00  0.0000E+00  0.0000E+00  0.0000E+00  0.0000E+00
     -2.717  0.4435E-02  0.1445E-03  0.1445E-03  0.1445E-03  0.0000E+00  0.0000E+00  0.0000E+00  0.0000E+00  0.0000E+00
     -2.602  0.1076E-01  0.4820E-03  0.4820E-03  0.4820E-03  0.0000E+00  0.0000E+00  0.0000E+00  0.0000E+00  0.0000E+00
     -2.486  0.7419E-01  0.3326E-02  0.3326E-02  0.3326E-02  0.0000E+00  0.0000E+00  0.0000E+00  0.0000E+00  0.0000E+00
     -2.371  0.6891E-01  0.3137E-02  0.3137E-02  0.3137E-02  0.0000E+00  0.0000E+00  0.0000E+00  0.0000E+00  0.0000E+00
     -2.255  0.9804E-01  0.4835E-02  0.4835E-02  0.4835E-02  0.0000E+00  0.0000E+00  0.0000E+00  0.0000E+00  0.0000E+00
     -2.139  0.1422E+00  0.7108E-02  0.7108E-02  0.7108E-02  0.0000E+00  0.0000E+00  0.0000E+00  0.0000E+00  0.0000E+00
     -2.024  0.4476E-01  0.2253E-02  0.2253E-02  0.2253E-02  0.0000E+00  0.0000E+00  0.0000E+00  0.0000E+00  0.0000E+00
     -1.908  0.2038E-02  0.1028E-03  0.1028E-03  0.1028E-03  0.0000E+00  0.0000E+00  0.0000E+00  0.0000E+00  0.0000E+00
     -1.793  0.9086E-05  0.4606E-06  0.4606E-06  0.4606E-06  0.0000E+00  0.0000E+00  0.0000E+00  0.0000E+00  0.0000E+00
     -1.677  0.8878E-04  0.6531E-05  0.6531E-05  0.6531E-05  0.0000E+00  0.0000E+00  0.0000E+00  0.0000E+00  0.0000E+00
     -1.561  0.7740E-02  0.5694E-03  0.5694E-03  0.5694E-03  0.0000E+00  0.0000E+00  0.0000E+00  0.0000E+00  0.0000E+00
     -1.446  0.6436E-01  0.4734E-02  0.4734E-02  0.4734E-02  0.0000E+00  0.0000E+00  0.0000E+00  0.0000E+00  0.0000E+00
     -1.330  0.6862E-01  0.5043E-02  0.5043E-02  0.5043E-02  0.0000E+00  0.0000E+00  0.0000E+00  0.0000E+00  0.0000E+00
     -1.215  0.7729E-01  0.5679E-02  0.5679E-02  0.5679E-02  0.0000E+00  0.0000E+00  0.0000E+00  0.0000E+00  0.0000E+00
     -1.099  0.1143E+00  0.8688E-02  0.8688E-02  0.8688E-02  0.0000E+00  0.0000E+00  0.0000E+00  0.0000E+00  0.0000E+00
     -0.983  0.7328E-01  0.5770E-02  0.5770E-02  0.5770E-02  0.0000E+00  0.0000E+00  0.0000E+00  0.0000E+00  0.0000E+00
     -0.868  0.9401E-02  0.7447E-03  0.7447E-03  0.7447E-03  0.0000E+00  0.0000E+00  0.0000E+00  0.0000E+00  0.0000E+00
     -0.752  0.1249E-03  0.9900E-05  0.9900E-05  0.9900E-05  0.0000E+00  0.0000E+00  0.0000E+00  0.0000E+00  0.0000E+00
     -0.637  0.1379E-06  0.1092E-07  0.1092E-07  0.1092E-07  0.0000E+00  0.0000E+00  0.0000E+00  0.0000E+00  0.0000E+00
     -0.521  0.6059E-07  0.6812E-08  0.6812E-08  0.6812E-08  0.0000E+00  0.0000E+00  0.0000E+00  0.0000E+00  0.0000E+00
     -0.406  0.6987E-04  0.7846E-05  0.7846E-05  0.7846E-05  0.0000E+00  0.0000E+00  0.0000E+00  0.0000E+00  0.0000E+00
     -0.290  0.6858E-02  0.7648E-03  0.7648E-03  0.7648E-03  0.0000E+00  0.0000E+00  0.0000E+00  0.0000E+00  0.0000E+00
     -0.174  0.7452E-01  0.8101E-02  0.8101E-02  0.8101E-02  0.0000E+00  0.0000E+00  0.0000E+00  0.0000E+00  0.0000E+00
     -0.059  0.1323E+00  0.1366E-01  0.1366E-01  0.1366E-01  0.0000E+00  0.0000E+00  0.0000E+00  0.0000E+00  0.0000E+00
      0.057  0.4414E-01  0.4357E-02  0.4357E-02  0.4357E-02  0.0000E+00  0.0000E+00  0.0000E+00  0.0000E+00  0.0000E+00
      0.172  0.3196E-02  0.3310E-03  0.3310E-03  0.3310E-03  0.0000E+00  0.0000E+00  0.0000E+00  0.0000E+00  0.0000E+00
      0.288  0.2787E-01  0.3244E-02  0.3244E-02  0.3244E-02  0.0000E+00  0.0000E+00  0.0000E+00  0.0000E+00  0.0000E+00
      0.404  0.7417E-01  0.8632E-02  0.8632E-02  0.8632E-02  0.0000E+00  0.0000E+00  0.0000E+00  0.0000E+00  0.0000E+00
      0.519  0.2291E-01  0.2666E-02  0.2666E-02  0.2666E-02  0.0000E+00  0.0000E+00  0.0000E+00  0.0000E+00  0.0000E+00
      0.635  0.7300E-03  0.8495E-04  0.8495E-04  0.8495E-04  0.0000E+00  0.0000E+00  0.0000E+00  0.0000E+00  0.0000E+00
      0.750  0.2013E-05  0.2343E-06  0.2343E-06  0.2343E-06  0.0000E+00  0.0000E+00  0.0000E+00  0.0000E+00  0.0000E+00
      0.866  0.6004E-06  0.6268E-07  0.6268E-07  0.6268E-07  0.0000E+00  0.0000E+00  0.0000E+00  0.0000E+00  0.0000E+00
      0.982  0.3343E-03  0.3491E-04  0.3491E-04  0.3491E-04  0.0000E+00  0.0000E+00  0.0000E+00  0.0000E+00  0.0000E+00
      1.097  0.1583E-01  0.1658E-02  0.1658E-02  0.1658E-02  0.0000E+00  0.0000E+00  0.0000E+00  0.0000E+00  0.0000E+00
      1.213  0.8105E-01  0.8919E-02  0.8919E-02  0.8919E-02  0.0000E+00  0.0000E+00  0.0000E+00  0.0000E+00  0.0000E+00
      1.328  0.9429E-01  0.1338E-01  0.1338E-01  0.1338E-01  0.0000E+00  0.0000E+00  0.0000E+00  0.0000E+00  0.0000E+00
      1.444  0.4984E-01  0.8311E-02  0.8311E-02  0.8311E-02  0.0000E+00  0.0000E+00  0.0000E+00  0.0000E+00  0.0000E+00
      1.560  0.4668E-02  0.7920E-03  0.7920E-03  0.7920E-03  0.0000E+00  0.0000E+00  0.0000E+00  0.0000E+00  0.0000E+00
      1.675  0.4286E-04  0.7279E-05  0.7279E-05  0.7279E-05  0.0000E+00  0.0000E+00  0.0000E+00  0.0000E+00  0.0000E+00
      1.791  0.1017E-03  0.1609E-04  0.1609E-04  0.1609E-04  0.0000E+00  0.0000E+00  0.0000E+00  0.0000E+00  0.0000E+00
      1.906  0.7776E-02  0.1231E-02  0.1231E-02  0.1231E-02  0.0000E+00  0.0000E+00  0.0000E+00  0.0000E+00  0.0000E+00
      2.022  0.5722E-01  0.9055E-02  0.9055E-02  0.9055E-02  0.0000E+00  0.0000E+00  0.0000E+00  0.0000E+00  0.0000E+00
      2.138  0.4905E-01  0.7566E-02  0.7566E-02  0.7566E-02  0.0000E+00  0.0000E+00  0.0000E+00  0.0000E+00  0.0000E+00
      2.253  0.4168E-01  0.7037E-03  0.7037E-03  0.7037E-03  0.0000E+00  0.0000E+00  0.0000E+00  0.0000E+00  0.0000E+00
      2.369  0.1152E+00  0.6104E-05  0.6104E-05  0.6104E-05  0.0000E+00  0.0000E+00  0.0000E+00  0.0000E+00  0.0000E+00
      2.484  0.4133E-01  0.4292E-08  0.4292E-08  0.4292E-08  0.0000E+00  0.0000E+00  0.0000E+00  0.0000E+00  0.0000E+00
      2.600  0.1550E-02  0.3215E-10  0.3215E-10  0.3215E-10  0.0000E+00  0.0000E+00  0.0000E+00  0.0000E+00  0.0000E+00
      2.716  0.5740E-05  0.2142E-06  0.2142E-06  0.2142E-06  0.0000E+00  0.0000E+00  0.0000E+00  0.0000E+00  0.0000E+00
      2.831  0.3159E-03  0.1193E-03  0.1193E-03  0.1193E-03  0.0000E+00  0.0000E+00  0.0000E+00  0.0000E+00  0.0000E+00
      2.947  0.1288E-01  0.6242E-02  0.6242E-02  0.6242E-02  0.0000E+00  0.0000E+00  0.0000E+00  0.0000E+00  0.0000E+00
      3.062  0.5305E-01  0.3619E-01  0.3619E-01  0.3619E-01  0.0000E+00  0.0000E+00  0.0000E+00  0.0000E+00  0.0000E+00
      3.178  0.2529E-01  0.2654E-01  0.2654E-01  0.2654E-01  0.0000E+00  0.0000E+00  0.0000E+00  0.0000E+00  0.0000E+00
      3.294  0.1289E-02  0.2345E-02  0.2345E-02  0.2345E-02  0.0000E+00  0.0000E+00  0.0000E+00  0.0000E+00  0.0000E+00
      3.409  0.5858E-05  0.2064E-04  0.2064E-04  0.2064E-04  0.0000E+00  0.0000E+00  0.0000E+00  0.0000E+00  0.0000E+00
      3.525  0.6364E-08  0.1616E-07  0.1616E-07  0.1616E-07  0.0000E+00  0.0000E+00  0.0000E+00  0.0000E+00  0.0000E+00
      3.640  0.1032E-04  0.1887E-05  0.1887E-05  0.1887E-05  0.0000E+00  0.0000E+00  0.0000E+00  0.0000E+00  0.0000E+00
      3.756  0.1988E-02  0.3636E-03  0.3636E-03  0.3636E-03  0.0000E+00  0.0000E+00  0.0000E+00  0.0000E+00  0.0000E+00
      3.872  0.3447E-01  0.6304E-02  0.6304E-02  0.6304E-02  0.0000E+00  0.0000E+00  0.0000E+00  0.0000E+00  0.0000E+00
      3.987  0.6447E-01  0.1179E-01  0.1179E-01  0.1179E-01  0.0000E+00  0.0000E+00  0.0000E+00  0.0000E+00  0.0000E+00
      4.103  0.1393E-01  0.2553E-02  0.2553E-02  0.2553E-02  0.0000E+00  0.0000E+00  0.0000E+00  0.0000E+00  0.0000E+00
      4.218  0.2283E-02  0.1051E-02  0.1051E-02  0.1051E-02  0.0000E+00  0.0000E+00  0.0000E+00  0.0000E+00  0.0000E+00
      4.334  0.2402E-01  0.1207E-01  0.1207E-01  0.1207E-01  0.0000E+00  0.0000E+00  0.0000E+00  0.0000E+00  0.0000E+00
      4.450  0.3215E-01  0.1744E-01  0.1744E-01  0.1744E-01  0.0000E+00  0.0000E+00  0.0000E+00  0.0000E+00  0.0000E+00
      4.565  0.4910E-02  0.3850E-01  0.3850E-01  0.3850E-01  0.0000E+00  0.0000E+00  0.0000E+00  0.0000E+00  0.0000E+00
      4.681  0.7285E-04  0.1247E+00  0.1247E+00  0.1247E+00  0.0000E+00  0.0000E+00  0.0000E+00  0.0000E+00  0.0000E+00
      4.796  0.8975E-07  0.9359E-01  0.9359E-01  0.9359E-01  0.0000E+00  0.0000E+00  0.0000E+00  0.0000E+00  0.0000E+00
      4.912  0.1599E-09  0.5405E-01  0.5405E-01  0.5405E-01  0.0000E+00  0.0000E+00  0.0000E+00  0.0000E+00  0.0000E+00
      5.028  0.1019E-05  0.4236E-01  0.4236E-01  0.4236E-01  0.0000E+00  0.0000E+00  0.0000E+00  0.0000E+00  0.0000E+00
      5.143  0.7806E-03  0.3705E-01  0.3705E-01  0.3705E-01  0.0000E+00  0.0000E+00  0.0000E+00  0.0000E+00  0.0000E+00
      5.259  0.5220E-01  0.3072E-01  0.3072E-01  0.3072E-01  0.0000E+00  0.0000E+00  0.0000E+00  0.0000E+00  0.0000E+00
      5.374  0.3809E+00  0.3115E-01  0.3115E-01  0.3115E-01  0.0000E+00  0.0000E+00  0.0000E+00  0.0000E+00  0.0000E+00
      5.490  0.4608E+00  0.2605E-01  0.2605E-01  0.2605E-01  0.0000E+00  0.0000E+00  0.0000E+00  0.0000E+00  0.0000E+00
      5.605  0.2577E+00  0.2879E-01  0.2879E-01  0.2879E-01  0.0000E+00  0.0000E+00  0.0000E+00  0.0000E+00  0.0000E+00
      5.721  0.2293E+00  0.4168E-01  0.4168E-01  0.4168E-01  0.0000E+00  0.0000E+00  0.0000E+00  0.0000E+00  0.0000E+00
      5.837  0.3802E+00  0.6269E-01  0.6269E-01  0.6269E-01  0.0000E+00  0.0000E+00  0.0000E+00  0.0000E+00  0.0000E+00
      5.952  0.3316E+00  0.1658E-01  0.1658E-01  0.1658E-01  0.0000E+00  0.0000E+00  0.0000E+00  0.0000E+00  0.0000E+00
      6.068  0.2646E+00  0.1075E-01  0.1075E-01  0.1075E-01  0.0000E+00  0.0000E+00  0.0000E+00  0.0000E+00  0.0000E+00
      6.183  0.1235E+00  0.1840E-01  0.1840E-01  0.1840E-01  0.0000E+00  0.0000E+00  0.0000E+00  0.0000E+00  0.0000E+00
      6.299  0.1256E-01  0.3980E-02  0.3980E-02  0.3980E-02  0.0000E+00  0.0000E+00  0.0000E+00  0.0000E+00  0.0000E+00
      6.415  0.1924E-03  0.1868E-03  0.1868E-03  0.1868E-03  0.0000E+00  0.0000E+00  0.0000E+00  0.0000E+00  0.0000E+00
      6.530  0.6126E-06  0.5149E-02  0.5149E-02  0.5149E-02  0.0000E+00  0.0000E+00  0.0000E+00  0.0000E+00  0.0000E+00
      6.646  0.1785E-03  0.2634E-01  0.2634E-01  0.2634E-01  0.0000E+00  0.0000E+00  0.0000E+00  0.0000E+00  0.0000E+00
      6.761  0.9017E-02  0.2208E-01  0.2208E-01  0.2208E-01  0.0000E+00  0.0000E+00  0.0000E+00  0.0000E+00  0.0000E+00
      6.877  0.4524E-01  0.3466E-01  0.3466E-01  0.3466E-01  0.0000E+00  0.0000E+00  0.0000E+00  0.0000E+00  0.0000E+00
      6.993  0.2784E-01  0.2046E-01  0.2046E-01  0.2046E-01  0.0000E+00  0.0000E+00  0.0000E+00  0.0000E+00  0.0000E+00
      7.108  0.3238E-01  0.1976E-01  0.1976E-01  0.1976E-01  0.0000E+00  0.0000E+00  0.0000E+00  0.0000E+00  0.0000E+00
      7.224  0.5968E-01  0.3706E-01  0.3706E-01  0.3706E-01  0.0000E+00  0.0000E+00  0.0000E+00  0.0000E+00  0.0000E+00
      7.339  0.1520E-01  0.8862E-02  0.8862E-02  0.8862E-02  0.0000E+00  0.0000E+00  0.0000E+00  0.0000E+00  0.0000E+00
      7.455  0.3445E-01  0.5780E-02  0.5780E-02  0.5780E-02  0.0000E+00  0.0000E+00  0.0000E+00  0.0000E+00  0.0000E+00
      7.571  0.6879E-01  0.1164E-01  0.1164E-01  0.1164E-01  0.0000E+00  0.0000E+00  0.0000E+00  0.0000E+00  0.0000E+00
      7.686  0.1671E-01  0.1455E-01  0.1455E-01  0.1455E-01  0.0000E+00  0.0000E+00  0.0000E+00  0.0000E+00  0.0000E+00
      7.802  0.6359E-02  0.4533E-01  0.4533E-01  0.4533E-01  0.0000E+00  0.0000E+00  0.0000E+00  0.0000E+00  0.0000E+00
      7.917  0.1003E-01  0.2912E-01  0.2912E-01  0.2912E-01  0.0000E+00  0.0000E+00  0.0000E+00  0.0000E+00  0.0000E+00
      8.033  0.2785E-01  0.2029E-01  0.2029E-01  0.2029E-01  0.0000E+00  0.0000E+00  0.0000E+00  0.0000E+00  0.0000E+00
      8.149  0.1978E-01  0.1315E-01  0.1315E-01  0.1315E-01  0.0000E+00  0.0000E+00  0.0000E+00  0.0000E+00  0.0000E+00
      8.264  0.1585E-02  0.1053E-02  0.1053E-02  0.1053E-02  0.0000E+00  0.0000E+00  0.0000E+00  0.0000E+00  0.0000E+00
      8.380  0.3076E-03  0.2564E-03  0.2564E-03  0.2564E-03  0.0000E+00  0.0000E+00  0.0000E+00  0.0000E+00  0.0000E+00
      8.495  0.1450E-01  0.9165E-02  0.9165E-02  0.9165E-02  0.0000E+00  0.0000E+00  0.0000E+00  0.0000E+00  0.0000E+00
      8.611  0.7450E-01  0.3624E-01  0.3624E-01  0.3624E-01  0.0000E+00  0.0000E+00  0.0000E+00  0.0000E+00  0.0000E+00
      8.727  0.4557E-01  0.1758E-01  0.1758E-01  0.1758E-01  0.0000E+00  0.0000E+00  0.0000E+00  0.0000E+00  0.0000E+00
      8.842  0.3117E-02  0.9838E-03  0.9838E-03  0.9838E-03  0.0000E+00  0.0000E+00  0.0000E+00  0.0000E+00  0.0000E+00
      8.958  0.1981E-04  0.7408E-03  0.7408E-03  0.7408E-03  0.0000E+00  0.0000E+00  0.0000E+00  0.0000E+00  0.0000E+00
      9.073  0.4246E-06  0.1310E-01  0.1310E-01  0.1310E-01  0.0000E+00  0.0000E+00  0.0000E+00  0.0000E+00  0.0000E+00
      9.189  0.1575E-03  0.2537E-01  0.2537E-01  0.2537E-01  0.0000E+00  0.0000E+00  0.0000E+00  0.0000E+00  0.0000E+00
      9.305  0.6754E-02  0.1437E-01  0.1437E-01  0.1437E-01  0.0000E+00  0.0000E+00  0.0000E+00  0.0000E+00  0.0000E+00
      9.420  0.4543E-01  0.3641E-01  0.3641E-01  0.3641E-01  0.0000E+00  0.0000E+00  0.0000E+00  0.0000E+00  0.0000E+00
      9.536  0.4916E-01  0.2521E-01  0.2521E-01  0.2521E-01  0.0000E+00  0.0000E+00  0.0000E+00  0.0000E+00  0.0000E+00
      9.651  0.7107E-02  0.2901E-02  0.2901E-02  0.2901E-02  0.0000E+00  0.0000E+00  0.0000E+00  0.0000E+00  0.0000E+00
      9.767  0.1308E-02  0.3961E-03  0.3961E-03  0.3961E-03  0.0000E+00  0.0000E+00  0.0000E+00  0.0000E+00  0.0000E+00
      9.883  0.2625E-01  0.7870E-02  0.7870E-02  0.7870E-02  0.0000E+00  0.0000E+00  0.0000E+00  0.0000E+00  0.0000E+00
      9.998  0.6655E-01  0.2364E-01  0.2364E-01  0.2364E-01  0.0000E+00  0.0000E+00  0.0000E+00  0.0000E+00  0.0000E+00
     10.114  0.4337E-01  0.3256E-01  0.3256E-01  0.3256E-01  0.0000E+00  0.0000E+00  0.0000E+00  0.0000E+00  0.0000E+00
     10.229  0.2254E-01  0.3423E-01  0.3423E-01  0.3423E-01  0.0000E+00  0.0000E+00  0.0000E+00  0.0000E+00  0.0000E+00
     10.345  0.5863E-02  0.1213E-01  0.1213E-01  0.1213E-01  0.0000E+00  0.0000E+00  0.0000E+00  0.0000E+00  0.0000E+00
     10.461  0.2759E-03  0.6054E-03  0.6054E-03  0.6054E-03  0.0000E+00  0.0000E+00  0.0000E+00  0.0000E+00  0.0000E+00
     10.576  0.1252E-05  0.9665E-03  0.9665E-03  0.9665E-03  0.0000E+00  0.0000E+00  0.0000E+00  0.0000E+00  0.0000E+00
     10.692  0.2378E-07  0.1436E-01  0.1436E-01  0.1436E-01  0.0000E+00  0.0000E+00  0.0000E+00  0.0000E+00  0.0000E+00
     10.807  0.1794E-04  0.2339E-01  0.2339E-01  0.2339E-01  0.0000E+00  0.0000E+00  0.0000E+00  0.0000E+00  0.0000E+00
     10.923  0.1214E-02  0.7858E-02  0.7858E-02  0.7858E-02  0.0000E+00  0.0000E+00  0.0000E+00  0.0000E+00  0.0000E+00
     11.039  0.7974E-02  0.2306E-01  0.2306E-01  0.2306E-01  0.0000E+00  0.0000E+00  0.0000E+00  0.0000E+00  0.0000E+00
     11.154  0.5978E-02  0.1723E-01  0.1723E-01  0.1723E-01  0.0000E+00  0.0000E+00  0.0000E+00  0.0000E+00  0.0000E+00
     11.270  0.6119E-03  0.1479E-02  0.1479E-02  0.1479E-02  0.0000E+00  0.0000E+00  0.0000E+00  0.0000E+00  0.0000E+00
     11.385  0.7301E-02  0.3234E-02  0.3234E-02  0.3234E-02  0.0000E+00  0.0000E+00  0.0000E+00  0.0000E+00  0.0000E+00
     11.501  0.4461E-01  0.1970E-01  0.1970E-01  0.1970E-01  0.0000E+00  0.0000E+00  0.0000E+00  0.0000E+00  0.0000E+00
     11.616  0.3123E-01  0.1382E-01  0.1382E-01  0.1382E-01  0.0000E+00  0.0000E+00  0.0000E+00  0.0000E+00  0.0000E+00
     11.732  0.4096E-02  0.4515E-02  0.4515E-02  0.4515E-02  0.0000E+00  0.0000E+00  0.0000E+00  0.0000E+00  0.0000E+00
     11.848  0.2608E-01  0.3400E-01  0.3400E-01  0.3400E-01  0.0000E+00  0.0000E+00  0.0000E+00  0.0000E+00  0.0000E+00
     11.963  0.4869E-01  0.4351E-01  0.4351E-01  0.4351E-01  0.0000E+00  0.0000E+00  0.0000E+00  0.0000E+00  0.0000E+00
     12.079  0.1138E-01  0.7856E-02  0.7856E-02  0.7856E-02  0.0000E+00  0.0000E+00  0.0000E+00  0.0000E+00  0.0000E+00