    1    1    1    1
  0.1482975E+02  0.2757716E-09  0.2757716E-09  0.2757716E-09  0.5000000E-15
   1.0000000000000000E-004
  CAR 
 fcc Si                                  
      4     40      6

  0.5000000E+00  0.5000000E+00  0.5000000E+00  0.2500000E-01
      1          2.313773   1.000000
      2          3.057279   1.000000
      3         18.190564   0.000000
      4         18.190564   0.000000
      5         20.734152   0.000000
      6         20.734152   0.000000

  0.4444444E+00  0.4444444E+00  0.4444444E+00  0.2500000E-01
      1          1.179932   1.000000
      2          4.349664   1.000000
      3         18.180755   0.000000
      4         18.180755   0.000000
      5         20.892848   0.000000
      6         20.892849   0.000000

  0.3888889E+00  0.3888889E+00  0.3888889E+00  0.2500000E-01
      1         -0.095939   1.000000
      2          6.101960   1.000000
      3         18.179681   0.000000
      4         18.179681   0.000000
      5         21.337747   0.000000
      6         21.337747   0.000000

  0.3333333E+00  0.3333333E+00  0.3333333E+00  0.2500000E-01
      1         -1.220686   1.000000
      2          8.015771   1.000000
      3         18.239328   0.000000
      4         18.239328   0.000000
      5         22.002782   0.000000
      6         22.002799   0.000000

  0.2777778E+00  0.2777778E+00  0.2777778E+00  0.2500000E-01
      1         -2.179819   1.000000
      2         10.070035   1.000000
      3         18.394094   0.000000
      4         18.394094   0.000000
      5         22.757341   0.000000
      6         22.808758   0.000000

  0.2222222E+00  0.2222222E+00  0.2222222E+00  0.2500000E-01
      1         -2.967929   1.000000
      2         12.252027   1.000000
      3         18.673968   0.000000
      4         18.673968   0.000000
      5         22.827466   0.000000
      6         23.600550   0.000000

  0.1666667E+00  0.1666667E+00  0.1666667E+00  0.2500000E-01
      1         -3.583308   1.000000
      2         14.537400   0.000000
      3         19.083967   0.000000
      4         19.083967   0.000000
      5         22.920571   0.000000
      6         23.887700   0.000000

  0.1111111E+00  0.1111111E+00  0.1111111E+00  0.2500000E-01
      1         -4.024126   1.000000
      2         16.880149   0.000000
      3         19.621268   0.000000
      4         19.621268   0.000000
      5         22.926238   0.000000
      6         23.256481   0.000000

  0.5555556E-01  0.5555556E-01  0.5555556E-01  0.2500000E-01
      1         -4.289133   1.000000
      2         19.148336   0.000000
      3         20.252614   0.000000
      4         20.252614   0.000000
      5         22.358052   0.000000
      6         22.358100   0.000000

  0.2775558E-16  0.2775558E-16  0.2775558E-16  0.2500000E-01
      1         -4.377812   1.000000
      2         20.695661   0.000000
      3         20.695840   0.000000
      4         20.695840   0.000000
      5         21.771410   0.000000
      6         21.771525   0.000000

  0.0000000E+00  0.0000000E+00  0.0000000E+00  0.2500000E-01
      1         -4.377812   1.000000
      2         20.695661   0.000000
      3         20.695840   0.000000
      4         20.695841   0.000000
      5         21.771473   0.000000
      6         21.771525   0.000000

  0.0000000E+00  0.5555556E-01  0.5555556E-01  0.2500000E-01
      1         -4.259576   1.000000
      2         19.472986   0.000000
      3         19.473101   0.000000
      4         20.413466   0.000000
      5         21.133023   0.000000
      6         23.191141   0.000000

  0.0000000E+00  0.1111111E+00  0.1111111E+00  0.2500000E-01
      1         -3.906320   1.000000
      2         17.997657   0.000000
      3         17.997759   0.000000
      4         19.643344   0.000000
      5         19.808323   0.000000
      6         24.722239   0.000000

  0.0000000E+00  0.1666667E+00  0.1666667E+00  0.2500000E-01
      1         -3.318920   1.000000
      2         16.681450   0.000000
      3         16.681545   0.000000
      4         18.449205   0.000000
      5         18.465942   0.000000
      6         21.965046   0.000000

  0.0000000E+00  0.2222222E+00  0.2222222E+00  0.2500000E-01
      1         -2.499251   1.000000
      2         15.556235   0.000000
      3         15.556323   0.000000
      4         16.727569   0.000000
      5         17.231851   0.000000
      6         19.817275   0.000000

  0.0000000E+00  0.2777778E+00  0.2777778E+00  0.2500000E-01
      1         -1.449366   1.000000
      2         14.401547   0.000000
      3         14.626953   0.000000
      4         14.627058   0.000000
      5         16.190263   0.000000
      6         18.462618   0.000000

  0.0000000E+00  0.3333333E+00  0.3333333E+00  0.2500000E-01
      1         -0.174533   1.000000
      2         11.887375   1.000000
      3         13.903957   0.000000
      4         13.904058   0.000000
      5         15.384471   0.000000
      6         17.583873   0.000000

  0.0000000E+00  0.3888889E+00  0.3888889E+00  0.2500000E-01
      1          1.321421   1.000000
      2          9.436733   1.000000
      3         13.387018   0.000000
      4         13.387116   0.000000
      5         14.806713   0.000000
      6         17.004923   0.000000

  0.0000000E+00  0.4444444E+00  0.4444444E+00  0.2500000E-01
      1          3.022491   1.000000
      2          7.143964   1.000000
      3         13.075610   0.000005
      4         13.075707   0.000005
      5         14.457170   0.000000
      6         16.662392   0.000000

  0.0000000E+00  0.5000000E+00  0.5000000E+00  0.2500000E-01
      1          4.615526   1.000000
      2          5.352611   1.000000
      3         12.971705   0.001635
      4         12.971801   0.001628
      5         14.340443   0.000000
      6         16.552693   0.000000

  0.0000000E+00  0.5000000E+00  0.5000000E+00  0.2500000E-01
      1          4.615526   1.000000
      2          5.352611   1.000000
      3         12.971705   0.001635
      4         12.971801   0.001628
      5         14.340443   0.000000
      6         16.552693   0.000000

  0.2777778E-01  0.5138889E+00  0.5138889E+00  0.2500000E-01
      1          4.629431   1.000000
      2          5.366243   1.000000
      3         12.583885   0.994513
      4         12.984676   0.000890
      5         14.619705   0.000000
      6         16.698209   0.000000

  0.5555556E-01  0.5277778E+00  0.5277778E+00  0.2500000E-01
      1          4.671144   1.000000
      2          5.407005   1.000000
      3         11.842313   1.000000
      4         13.023291   0.000121
      5         15.022993   0.000000
      6         17.147283   0.000000

  0.8333333E-01  0.5416667E+00  0.5416667E+00  0.2500000E-01
      1          4.740667   1.000000
      2          5.474450   1.000000
      3         11.022968   1.000000
      4         13.087631   0.000002
      5         15.313466   0.000000
      6         17.860664   0.000000

  0.1111111E+00  0.5555556E+00  0.5555556E+00  0.2500000E-01
      1          4.837998   1.000000
      2          5.567560   1.000000
      3         10.189698   1.000000
      4         13.177609   0.000000
      5         15.527367   0.000000
      6         18.738245   0.000000

  0.1388889E+00  0.5694444E+00  0.5694444E+00  0.2500000E-01
      1          4.963130   1.000000
      2          5.684412   1.000000
      3          9.364901   1.000000
      4         13.293231   0.000000
      5         15.717056   0.000000
      6         19.705885   0.000000

  0.1666667E+00  0.5833333E+00  0.5833333E+00  0.2500000E-01
      1          5.116053   1.000000
      2          5.819899   1.000000
      3          8.560746   1.000000
      4         13.434184   0.000000
      5         15.909375   0.000000
      6         20.722936   0.000000

  0.1944444E+00  0.5972222E+00  0.5972222E+00  0.2500000E-01
      1          5.297040   1.000000
      2          5.959516   1.000000
      3          7.800207   1.000000
      4         13.600710   0.000000
      5         16.119514   0.000000
      6         21.786377   0.000000

  0.2222222E+00  0.6111111E+00  0.6111111E+00  0.2500000E-01
      1          5.505568   1.000000
      2          6.039889   1.000000
      3          7.146536   1.000000
      4         13.792547   0.000000
      5         16.346619   0.000000
      6         22.859161   0.000000

  0.2500000E+00  0.6250000E+00  0.6250000E+00  0.2500000E-01
      1          5.741789   1.000000
      2          5.814274   1.000000
      3          6.847497   1.000000
      4         14.009293   0.000000
      5         16.588957   0.000000
      6         23.940375   0.000000

  0.3750000E+00  0.7500000E+00  0.3750000E+00  0.2500000E-01
      1          5.741789   1.000000
      2          5.814274   1.000000
      3          6.847497   1.000000
      4         14.009293   0.000000
      5         16.588957   0.000000
      6         23.940375   0.000000

  0.3333333E+00  0.6666667E+00  0.3333333E+00  0.2500000E-01
      1          3.905280   1.000000
      2          6.617069   1.000000
      3          7.492743   1.000000
      4         14.809116   0.000000
      5         17.488882   0.000000
      6         27.148420   0.000000

  0.2916667E+00  0.5833333E+00  0.2916667E+00  0.2500000E-01
      1          2.012318   1.000000
      2          7.740610   1.000000
      3          8.587987   1.000000
      4         15.822391   0.000000
      5         18.611425   0.000000
      6         27.122732   0.000000

  0.2500000E+00  0.5000000E+00  0.2500000E+00  0.2500000E-01
      1          0.340670   1.000000
      2          9.108429   1.000000
      3          9.927411   1.000000
      4         17.025853   0.000000
      5         19.942784   0.000000
      6         25.822416   0.000000

  0.2083333E+00  0.4166667E+00  0.2083333E+00  0.2500000E-01
      1         -1.088337   1.000000
      2         10.717895   1.000000
      3         11.481633   1.000000
      4         18.359661   0.000000
      5         21.454464   0.000000
      6         24.809129   0.000000

  0.1666667E+00  0.3333333E+00  0.1666667E+00  0.2500000E-01
      1         -2.266629   1.000000
      2         12.560915   0.997937
      3         13.226145   0.000000
      4         19.671629   0.000000
      5         23.091711   0.000000
      6         23.841724   0.000000

  0.1250000E+00  0.2500000E+00  0.1250000E+00  0.2500000E-01
      1         -3.187329   1.000000
      2         14.617931   0.000000
      3         15.126264   0.000000
      4         20.545263   0.000000
      5         22.949165   0.000000
      6         24.007664   0.000000

  0.8333333E-01  0.1666667E+00  0.8333333E-01  0.2500000E-01
      1         -3.847608   1.000000
      2         16.853959   0.000000
      3         17.137394   0.000000
      4         20.774116   0.000000
      5         22.310728   0.000000
      6         23.332920   0.000000

  0.4166667E-01  0.8333333E-01  0.4166667E-01  0.2500000E-01
      1         -4.244899   1.000000
      2         19.115700   0.000000
      3         19.164538   0.000000
      4         20.732475   0.000000
      5         21.926001   0.000000
      6         22.633279   0.000000

  0.2081668E-16  0.4163336E-16  0.2081668E-16  0.2500000E-01
      1         -4.377812   1.000000
      2         20.695661   0.000000
      3         20.695840   0.000000
      4         20.695840   0.000000
      5         21.771464   0.000000
      6         21.771525   0.000000
