       N       E                     dE             d eps       ncg     rms          rms(c)
DAV:   1    -0.386534487212E+01   -0.38653E+01   -0.11501E+03   570   0.264E+02
DAV:   2    -0.534898094098E+01   -0.14836E+01   -0.11819E+01   684   0.215E+01
DAV:   3    -0.535922408430E+01   -0.10243E-01   -0.10243E-01   570   0.179E+00
DAV:   4    -0.535923368226E+01   -0.95980E-05   -0.95989E-05   678   0.537E-02
DAV:   5    -0.535923369830E+01   -0.16038E-07   -0.16388E-07   498   0.146E-03
DAV:   6    -0.535923369870E+01   -0.40671E-09   -0.11851E-08   456   0.212E-04
   1 F= -.53592337E+01 E0= -.53591509E+01  d E =-.165683E-03
