<?xml version="1.0" encoding="ISO-8859-1"?>
<modeling>
 <generator>
  <i name="program" type="string">vasp </i>
  <i name="version" type="string">6.3.0  </i>
  <i name="subversion" type="string">20Jan22 (build Oct  7 2022 22:46:23) complex                          parallel </i>
  <i name="platform" type="string">LinuxGNU </i>
  <i name="date" type="string">2025 04 17 </i>
  <i name="time" type="string">11:07:22 </i>
 </generator>
 <incar>
  <i type="string" name="SYSTEM">fcc Si</i>
  <i type="int" name="ICHARG">    11</i>
  <i name="ENCUT">    240.00000000</i>
  <i type="int" name="ISMEAR">     0</i>
  <i name="SIGMA">      0.10000000</i>
  <i type="int" name="LORBIT">    11</i>
 </incar>
 <primitive_cell>
  <structure name="primitive_cell" >
   <crystal>
    <varray name="basis" >
     <v>       1.95000000       1.95000000       0.00000000 </v>
     <v>       0.00000000       1.95000000       1.95000000 </v>
     <v>       1.95000000       0.00000000       1.95000000 </v>
    </varray>
    <i name="volume">     14.82975000 </i>
    <varray name="rec_basis" >
     <v>       0.25641026       0.25641026      -0.25641026 </v>
     <v>      -0.25641026       0.25641026       0.25641026 </v>
     <v>       0.25641026      -0.25641026       0.25641026 </v>
    </varray>
   </crystal>
   <varray name="positions" >
    <v>       0.00000000       0.00000000       0.00000000 </v>
   </varray>
  </structure>
  <varray name="primitive_index" >
   <v type="int" >        1 </v>
  </varray>
 </primitive_cell>
 <kpoints>
  <generation param="listgenerated">
   <i name="divisions" type="int">      10 </i>
   <v>       0.50000000       0.50000000       0.50000000 </v>
   <v>       0.00000000       0.00000000       0.00000000 </v>
   <v>       0.00000000       0.50000000       0.50000000 </v>
   <v>       0.37500000       0.75000000       0.37500000 </v>
   <v>       0.00000000       0.00000000       0.00000000 </v>
  </generation>
  <varray name="kpointlist" >
   <v>       0.50000000       0.50000000       0.50000000 </v>
   <v>       0.44444444       0.44444444       0.44444444 </v>
   <v>       0.38888889       0.38888889       0.38888889 </v>
   <v>       0.33333333       0.33333333       0.33333333 </v>
   <v>       0.27777778       0.27777778       0.27777778 </v>
   <v>       0.22222222       0.22222222       0.22222222 </v>
   <v>       0.16666667       0.16666667       0.16666667 </v>
   <v>       0.11111111       0.11111111       0.11111111 </v>
   <v>       0.05555556       0.05555556       0.05555556 </v>
   <v>       0.00000000       0.00000000       0.00000000 </v>
   <v>       0.00000000       0.00000000       0.00000000 </v>
   <v>       0.00000000       0.05555556       0.05555556 </v>
   <v>       0.00000000       0.11111111       0.11111111 </v>
   <v>       0.00000000       0.16666667       0.16666667 </v>
   <v>       0.00000000       0.22222222       0.22222222 </v>
   <v>       0.00000000       0.27777778       0.27777778 </v>
   <v>       0.00000000       0.33333333       0.33333333 </v>
   <v>       0.00000000       0.38888889       0.38888889 </v>
   <v>       0.00000000       0.44444444       0.44444444 </v>
   <v>       0.00000000       0.50000000       0.50000000 </v>
   <v>       0.00000000       0.50000000       0.50000000 </v>
   <v>       0.02777778       0.51388889       0.51388889 </v>
   <v>       0.05555556       0.52777778       0.52777778 </v>
   <v>       0.08333333       0.54166667       0.54166667 </v>
   <v>       0.11111111       0.55555556       0.55555556 </v>
   <v>       0.13888889       0.56944444       0.56944444 </v>
   <v>       0.16666667       0.58333333       0.58333333 </v>
   <v>       0.19444444       0.59722222       0.59722222 </v>
   <v>       0.22222222       0.61111111       0.61111111 </v>
   <v>       0.25000000       0.62500000       0.62500000 </v>
   <v>       0.37500000       0.75000000       0.37500000 </v>
   <v>       0.33333333       0.66666667       0.33333333 </v>
   <v>       0.29166667       0.58333333       0.29166667 </v>
   <v>       0.25000000       0.50000000       0.25000000 </v>
   <v>       0.20833333       0.41666667       0.20833333 </v>
   <v>       0.16666667       0.33333333       0.16666667 </v>
   <v>       0.12500000       0.25000000       0.12500000 </v>
   <v>       0.08333333       0.16666667       0.08333333 </v>
   <v>       0.04166667       0.08333333       0.04166667 </v>
   <v>       0.00000000       0.00000000       0.00000000 </v>
  </varray>
  <varray name="weights" >
   <v>       0.02500000 </v>
   <v>       0.02500000 </v>
   <v>       0.02500000 </v>
   <v>       0.02500000 </v>
   <v>       0.02500000 </v>
   <v>       0.02500000 </v>
   <v>       0.02500000 </v>
   <v>       0.02500000 </v>
   <v>       0.02500000 </v>
   <v>       0.02500000 </v>
   <v>       0.02500000 </v>
   <v>       0.02500000 </v>
   <v>       0.02500000 </v>
   <v>       0.02500000 </v>
   <v>       0.02500000 </v>
   <v>       0.02500000 </v>
   <v>       0.02500000 </v>
   <v>       0.02500000 </v>
   <v>       0.02500000 </v>
   <v>       0.02500000 </v>
   <v>       0.02500000 </v>
   <v>       0.02500000 </v>
   <v>       0.02500000 </v>
   <v>       0.02500000 </v>
   <v>       0.02500000 </v>
   <v>       0.02500000 </v>
   <v>       0.02500000 </v>
   <v>       0.02500000 </v>
   <v>       0.02500000 </v>
   <v>       0.02500000 </v>
   <v>       0.02500000 </v>
   <v>       0.02500000 </v>
   <v>       0.02500000 </v>
   <v>       0.02500000 </v>
   <v>       0.02500000 </v>
   <v>       0.02500000 </v>
   <v>       0.02500000 </v>
   <v>       0.02500000 </v>
   <v>       0.02500000 </v>
   <v>       0.02500000 </v>
  </varray>
  <kpoints_labels>
   <i name="L" type="int">       1 </i>
   <i name="G" type="int">       2 </i>
   <i name="G" type="int">       3 </i>
   <i name="X" type="int">       4 </i>
   <i name="X" type="int">       5 </i>
   <i name="U" type="int">       6 </i>
   <i name="K" type="int">       7 </i>
   <i name="G" type="int">       8 </i>
  </kpoints_labels>
 </kpoints>
 <parameters>
  <separator name="general" >
   <i type="string" name="SYSTEM">fcc Si</i>
   <i type="logical" name="LCOMPAT"> F  </i>
  </separator>
  <separator name="electronic" >
   <i type="string" name="PREC">normal</i>
   <i name="ENMAX">    240.00000000</i>
   <i name="ENAUG">    322.06900000</i>
   <i name="EDIFF">      0.00010000</i>
   <i type="int" name="IALGO">    38</i>
   <i type="int" name="IWAVPR">    10</i>
   <i type="int" name="NBANDS">     6</i>
   <i type="int" name="NBANDSLOW">    -1</i>
   <i type="int" name="NBANDSHIGH">    -1</i>
   <i name="NELECT">      4.00000000</i>
   <i type="int" name="TURBO">     0</i>
   <i type="int" name="IRESTART">     0</i>
   <i type="int" name="NREBOOT">     0</i>
   <i type="int" name="NMIN">     0</i>
   <i name="EREF">      0.00000000</i>
   <separator name="electronic smearing" >
    <i type="int" name="ISMEAR">     0</i>
    <i name="SIGMA">      0.10000000</i>
    <i name="KSPACING">      0.50000000</i>
    <i type="logical" name="KGAMMA"> T  </i>
    <i type="logical" name="KBLOWUP"> T  </i>
   </separator>
   <separator name="electronic projectors" >
    <i type="logical" name="LREAL"> F  </i>
    <v name="ROPT">      0.00000000</v>
    <i type="int" name="LMAXPAW">  -100</i>
    <i type="int" name="LMAXMIX">     2</i>
    <i type="logical" name="NLSPLINE"> F  </i>
   </separator>
   <separator name="electronic startup" >
    <i type="int" name="ISTART">     0</i>
    <i type="int" name="ICHARG">    11</i>
    <i type="int" name="INIWAV">     1</i>
   </separator>
   <separator name="electronic spin" >
    <i type="int" name="ISPIN">     1</i>
    <i type="logical" name="LNONCOLLINEAR"> F  </i>
    <v name="MAGMOM">      1.00000000</v>
    <i name="NUPDOWN">     -1.00000000</i>
    <i type="logical" name="LSORBIT"> F  </i>
    <v name="SAXIS">      0.00000000      0.00000000      1.00000000</v>
    <i type="logical" name="LSPIRAL"> F  </i>
    <v name="QSPIRAL">      0.00000000      0.00000000      0.00000000</v>
    <i type="logical" name="LZEROZ"> F  </i>
   </separator>
   <separator name="electronic exchange-correlation" >
    <i type="logical" name="LASPH"> F  </i>
    <i type="logical" name="LMETAGGA"> F  </i>
   </separator>
   <separator name="electronic convergence" >
    <i type="int" name="NELM">    60</i>
    <i type="int" name="NELMDL">    -5</i>
    <i type="int" name="NELMIN">     2</i>
    <i name="ENINI">    240.00000000</i>
    <separator name="electronic convergence detail" >
     <i type="logical" name="LDIAG"> T  </i>
     <i type="logical" name="LSUBROT"> F  </i>
     <i name="WEIMIN">      0.00000000</i>
     <i name="EBREAK">      0.00000417</i>
     <i name="DEPER">      0.30000000</i>
     <i type="int" name="NRMM">     4</i>
     <i name="TIME">      0.40000000</i>
    </separator>
   </separator>
   <separator name="electronic mixer" >
    <i name="AMIX">      0.40000000</i>
    <i name="BMIX">      1.00000000</i>
    <i name="AMIN">      0.10000000</i>
    <i name="AMIX_MAG">      1.60000000</i>
    <i name="BMIX_MAG">      1.00000000</i>
    <separator name="electronic mixer details" >
     <i type="int" name="IMIX">     4</i>
     <i type="logical" name="MIXFIRST"> F  </i>
     <i type="int" name="MAXMIX">   -45</i>
     <i name="WC">    100.00000000</i>
     <i type="int" name="INIMIX">     1</i>
     <i type="int" name="MIXPRE">     1</i>
     <i type="int" name="MREMOVE">     5</i>
    </separator>
   </separator>
   <separator name="electronic dipolcorrection" >
    <i type="logical" name="LDIPOL"> F  </i>
    <i type="logical" name="LMONO"> F  </i>
    <i type="int" name="IDIPOL">     0</i>
    <i name="EPSILON">      1.00000000</i>
    <v name="DIPOL">   -100.00000000   -100.00000000   -100.00000000</v>
    <i name="EFIELD">      0.00000000</i>
   </separator>
  </separator>
  <separator name="grids" >
   <i type="int" name="NGX">    10</i>
   <i type="int" name="NGY">    10</i>
   <i type="int" name="NGZ">    10</i>
   <i type="int" name="NGXF">    20</i>
   <i type="int" name="NGYF">    20</i>
   <i type="int" name="NGZF">    20</i>
   <i type="logical" name="ADDGRID"> F  </i>
  </separator>
  <separator name="ionic" >
   <i type="int" name="NSW">     0</i>
   <i type="int" name="IBRION">    -1</i>
   <i type="int" name="MDALGO">     0</i>
   <i type="int" name="ISIF">     2</i>
   <i name="PSTRESS">      0.00000000</i>
   <i name="EDIFFG">      0.00100000</i>
   <i type="int" name="NFREE">     0</i>
   <i name="POTIM">      0.50000000</i>
   <i name="SMASS">     -3.00000000</i>
   <i name="SCALEE">      1.00000000</i>
  </separator>
  <separator name="ionic md" >
   <i name="TEBEG">      0.00010000</i>
   <i name="TEEND">      0.00010000</i>
   <i type="int" name="NBLOCK">     1</i>
   <i type="int" name="KBLOCK">     1</i>
   <i type="int" name="NPACO">   256</i>
   <i name="APACO">     10.00000000</i>
  </separator>
  <separator name="symmetry" >
   <i type="int" name="ISYM">     2</i>
   <i name="SYMPREC">      0.00001000</i>
  </separator>
  <separator name="dos" >
   <i type="int" name="LORBIT">    11</i>
   <v name="RWIGS">     -1.00000000</v>
   <i type="int" name="NEDOS">   301</i>
   <i name="EMIN">     10.00000000</i>
   <i name="EMAX">    -10.00000000</i>
   <i name="EFERMI">      0.00000000</i>
  </separator>
  <separator name="writing" >
   <i type="int" name="NWRITE">     2</i>
   <i type="logical" name="LWAVE"> T  </i>
   <i type="logical" name="LDOWNSAMPLE"> F  </i>
   <i type="logical" name="LCHARG"> T  </i>
   <i type="logical" name="LPARD"> F  </i>
   <i type="logical" name="LVTOT"> F  </i>
   <i type="logical" name="LVHAR"> F  </i>
   <i type="logical" name="LELF"> F  </i>
   <i type="logical" name="LOPTICS"> F  </i>
   <v name="STM">      0.00000000      0.00000000      0.00000000      0.00000000      0.00000000      0.00000000      0.00000000</v>
  </separator>
  <separator name="performance" >
   <i type="int" name="NPAR">     2</i>
   <i type="int" name="NSIM">     4</i>
   <i type="int" name="NBLK">    -1</i>
   <i type="logical" name="LPLANE"> T  </i>
   <i type="logical" name="LSCALAPACK"> T  </i>
   <i type="logical" name="LSCAAWARE"> F  </i>
   <i type="logical" name="LSCALU"> F  </i>
   <i type="logical" name="LASYNC"> F  </i>
   <i type="logical" name="LORBITALREAL"> F  </i>
  </separator>
  <separator name="miscellaneous" >
   <i type="int" name="IDIOT">     3</i>
   <i type="int" name="PHON_NSTRUCT">    -1</i>
   <i type="logical" name="LMUSIC"> F  </i>
   <v name="POMASS">     28.08500000</v>
   <v name="DARWINR">      0.00000000</v>
   <v name="DARWINV">      1.00000000</v>
   <i type="logical" name="LCORR"> T  </i>
  </separator>
  <i type="logical" name="GGA_COMPAT"> T  </i>
  <i type="logical" name="LBERRY"> F  </i>
  <i type="int" name="ICORELEVEL">     0</i>
  <i type="logical" name="LDAU"> F  </i>
  <i type="int" name="I_CONSTRAINED_M">     0</i>
  <separator name="electronic exchange-correlation" >
   <i type="string" name="GGA">--</i>
   <i type="int" name="VOSKOWN">     0</i>
   <i type="logical" name="LHFCALC"> F  </i>
   <i type="string" name="PRECFOCK"></i>
   <i type="logical" name="LSYMGRAD"> F  </i>
   <i type="logical" name="LHFONE"> F  </i>
   <i type="logical" name="LRHFCALC"> F  </i>
   <i type="logical" name="LTHOMAS"> F  </i>
   <i type="logical" name="LMODELHF"> F  </i>
   <i type="logical" name="LFOCKACE"> F  </i>
   <i name="ENCUT4O">     -1.00000000</i>
   <i type="int" name="EXXOEP">     0</i>
   <i type="int" name="FOURORBIT">     0</i>
   <i name="AEXX">      0.00000000</i>
   <i name="HFALPHA">      0.00000000</i>
   <i name="MCALPHA">      0.00000000</i>
   <i name="ALDAX">      1.00000000</i>
   <i name="AGGAX">      1.00000000</i>
   <i name="ALDAC">      1.00000000</i>
   <i name="AGGAC">      1.00000000</i>
   <i type="int" name="NKREDX">     1</i>
   <i type="int" name="NKREDY">     1</i>
   <i type="int" name="NKREDZ">     1</i>
   <i type="logical" name="SHIFTRED"> F  </i>
   <i type="logical" name="ODDONLY"> F  </i>
   <i type="logical" name="EVENONLY"> F  </i>
   <i type="int" name="LMAXFOCK">     0</i>
   <i type="int" name="NMAXFOCKAE">     0</i>
   <i type="logical" name="LFOCKAEDFT"> F  </i>
   <i name="HFSCREEN">      0.00000000</i>
   <i name="HFSCREENC">      0.00000000</i>
   <i type="int" name="NBANDSGWLOW">     0</i>
  </separator>
  <separator name="vdW DFT" >
   <i type="logical" name="LUSE_VDW"> F  </i>
   <i name="Zab_VDW">     -0.84910000</i>
   <i name="PARAM1">      0.12340000</i>
   <i name="PARAM2">      1.00000000</i>
   <i name="PARAM3">      0.00000000</i>
  </separator>
  <separator name="model GW" >
   <i type="int" name="MODEL_GW">     0</i>
   <i name="MODEL_EPS0">      8.89785000</i>
   <i name="MODEL_ALPHA">      1.00000000</i>
  </separator>
  <separator name="linear response parameters" >
   <i type="logical" name="LEPSILON"> F  </i>
   <i type="logical" name="LRPA"> F  </i>
   <i type="logical" name="LNABLA"> F  </i>
   <i type="logical" name="LVEL"> F  </i>
   <i name="CSHIFT">      0.10000000</i>
   <i name="OMEGAMAX">     -1.00000000</i>
   <i name="DEG_THRESHOLD">      0.00200000</i>
   <i name="RTIME">     -0.10000000</i>
   <i name="WPLASMAI">      0.00000000</i>
   <v name="DFIELD">      0.00000000      0.00000000      0.00000000</v>
   <v name="WPLASMA">      0.00000000      0.00000000      0.00000000      0.00000000      0.00000000      0.00000000      0.00000000      0.00000000      0.00000000</v>
  </separator>
  <separator name="orbital magnetization" >
   <i type="logical" name="NUCIND"> F  </i>
   <v name="MAGPOS">      0.00000000      0.00000000      0.00000000</v>
   <i type="logical" name="LNICSALL"> T  </i>
   <i type="logical" name="ORBITALMAG"> F  </i>
   <i type="logical" name="LMAGBLOCH"> F  </i>
   <i type="logical" name="LCHIMAG"> F  </i>
   <i type="logical" name="LGAUGE"> T  </i>
   <i type="int" name="MAGATOM">     0</i>
   <v name="MAGDIPOL">      0.00000000      0.00000000      0.00000000</v>
   <v name="AVECCONST">      0.00000000      0.00000000      0.00000000</v>
  </separator>
  <separator name="response functions" >
   <i type="logical" name="LFINITE_TEMPERATURE"> F  </i>
   <i type="logical" name="LADDER"> F  </i>
   <i type="logical" name="LRPAFORCE"> F  </i>
   <i type="logical" name="LFXC"> F  </i>
   <i type="logical" name="LHARTREE"> T  </i>
   <i type="int" name="IBSE">     0</i>
   <v type="int" name="KPOINT">    -1     0     0     0</v>
   <i type="logical" name="LTCTC"> F  </i>
   <i type="logical" name="LTCTE"> F  </i>
   <i type="logical" name="LTETE"> F  </i>
   <i type="logical" name="LTRIPLET"> F  </i>
   <i type="logical" name="LFXCEPS"> F  </i>
   <i type="logical" name="LFXHEG"> F  </i>
   <i type="int" name="NATURALO">     2</i>
   <i type="logical" name="LHOLEGF"> F  </i>
   <i type="logical" name="L2ORDER"> F  </i>
   <i type="logical" name="LDMP1"> F  </i>
   <i type="logical" name="LMP2LT"> F  </i>
   <i type="logical" name="LSMP2LT"> F  </i>
   <i type="logical" name="LGWLF"> F  </i>
   <i name="ENCUTGW">     -2.00000000</i>
   <i name="ENCUTGWSOFT">     -2.00000000</i>
   <i name="ENCUTLF">     -1.00000000</i>
   <i type="logical" name="LESF_SPLINES"> F  </i>
   <i type="int" name="LMAXMP2">    -1</i>
   <i name="SCISSOR">      0.00000000</i>
   <i type="int" name="NOMEGA">     0</i>
   <i type="int" name="NOMEGAR">     0</i>
   <i type="int" name="NBANDSGW">    -1</i>
   <i type="int" name="NBANDSO">    -1</i>
   <i type="int" name="NBANDSV">    -1</i>
   <i type="int" name="NELMGW">     1</i>
   <i type="int" name="NELMHF">     1</i>
   <i type="int" name="DIM">     3</i>
   <i type="int" name="IESPILON">     4</i>
   <i type="int" name="ANTIRES">     0</i>
   <i name="OMEGAMAX">    -30.00000000</i>
   <i name="OMEGAMIN">    -30.00000000</i>
   <i name="OMEGATL">   -200.00000000</i>
   <i type="int" name="OMEGAGRID">     0</i>
   <i name="CSHIFT">     -0.10000000</i>
   <i type="logical" name="LSELFENERGY"> F  </i>
   <i type="logical" name="LSPECTRAL"> F  </i>
   <i type="logical" name="LSPECTRALGW"> F  </i>
   <i type="logical" name="LSINGLES"> F  </i>
   <i type="logical" name="LFERMIGW"> F  </i>
   <i type="logical" name="ODDONLYGW"> F  </i>
   <i type="logical" name="EVENONLYGW"> F  </i>
   <i type="int" name="NKREDLFX">     1</i>
   <i type="int" name="NKREDLFY">     1</i>
   <i type="int" name="NKREDLFZ">     1</i>
   <i type="int" name="MAXMEM">  2800</i>
   <i type="int" name="TELESCOPE">     0</i>
   <i type="int" name="NTAUPAR">    -1</i>
   <i type="int" name="NOMEGAPAR">    -1</i>
   <i name="DAMP_NEWTON">      0.80000001</i>
   <i name="LAMBDA">      1.00000000</i>
  </separator>
  <separator name="External order field" >
   <i name="OFIELD_KAPPA">      0.00000000</i>
   <v name="OFIELD_K">      0.00000000      0.00000000      0.00000000</v>
   <i name="OFIELD_Q6_NEAR">      0.00000000</i>
   <i name="OFIELD_Q6_FAR">      0.00000000</i>
   <i name="OFIELD_A">      0.00000000</i>
  </separator>
  <separator name="optional k-points parameters" >
   <i type="int" name="KPOINTS_OPT_MODE">     1</i>
   <i type="logical" name="LKPOINTS_OPT"> F  </i>
  </separator>
 </parameters>
 <atominfo>
  <atoms>       1 </atoms>
  <types>       1 </types>
  <array name="atoms" >
   <dimension dim="1">ion</dimension>
   <field type="string">element</field>
   <field type="int">atomtype</field>
   <set>
    <rc><c>Si</c><c>   1</c></rc>
   </set>
  </array>
  <array name="atomtypes" >
   <dimension dim="1">type</dimension>
   <field type="int">atomspertype</field>
   <field type="string">element</field>
   <field>mass</field>
   <field>valence</field>
   <field type="string">pseudopotential</field>
   <set>
    <rc><c>   1</c><c>Si</c><c>     28.08500000</c><c>      4.00000000</c><c>  PAW_PBE Si 05Jan2001                  </c></rc>
   </set>
  </array>
 </atominfo>
 <structure name="initialpos" >
  <crystal>
   <varray name="basis" >
    <v>       1.95000000       1.95000000       0.00000000 </v>
    <v>       0.00000000       1.95000000       1.95000000 </v>
    <v>       1.95000000       0.00000000       1.95000000 </v>
   </varray>
   <i name="volume">     14.82975000 </i>
   <varray name="rec_basis" >
    <v>       0.25641026       0.25641026      -0.25641026 </v>
    <v>      -0.25641026       0.25641026       0.25641026 </v>
    <v>       0.25641026      -0.25641026       0.25641026 </v>
   </varray>
  </crystal>
  <varray name="positions" >
   <v>       0.00000000       0.00000000       0.00000000 </v>
  </varray>
 </structure>
 <calculation>
  <scstep>
   <time name="dav">    0.08    0.08</time>
   <time name="total">    0.08    0.08</time>
   <energy>
    <i name="alphaZ">      2.26997291 </i>
    <i name="ewald">   -135.42777035 </i>
    <i name="hartreedc">     -0.49260956 </i>
    <i name="XCdc">     -8.81661951 </i>
    <i name="pawpsdc">    343.79085144 </i>
    <i name="pawaedc">   -326.20596395 </i>
    <i name="eentropy">     -0.00375023 </i>
    <i name="bandstr">     17.95976779 </i>
    <i name="atom">    103.06077658 </i>
    <i name="e_fr_energy">     -3.86534487 </i>
    <i name="e_wo_entrp">     -3.86159464 </i>
    <i name="e_0_energy">     -3.86346976 </i>
   </energy>
  </scstep>
  <scstep>
   <time name="dav">    0.10    0.10</time>
   <time name="total">    0.10    0.10</time>
   <energy>
    <i name="e_fr_energy">     -5.34898094 </i>
    <i name="e_wo_entrp">     -5.34880677 </i>
    <i name="e_0_energy">     -5.34889386 </i>
   </energy>
  </scstep>
  <scstep>
   <time name="dav">    0.08    0.08</time>
   <time name="total">    0.08    0.08</time>
   <energy>
    <i name="e_fr_energy">     -5.35922408 </i>
    <i name="e_wo_entrp">     -5.35905842 </i>
    <i name="e_0_energy">     -5.35914125 </i>
   </energy>
  </scstep>
  <scstep>
   <time name="dav">    0.10    0.10</time>
   <time name="total">    0.10    0.10</time>
   <energy>
    <i name="e_fr_energy">     -5.35923368 </i>
    <i name="e_wo_entrp">     -5.35906800 </i>
    <i name="e_0_energy">     -5.35915084 </i>
   </energy>
  </scstep>
  <scstep>
   <time name="dav">    0.07    0.07</time>
   <time name="total">    0.08    0.08</time>
   <energy>
    <i name="e_fr_energy">     -5.35923370 </i>
    <i name="e_wo_entrp">     -5.35906802 </i>
    <i name="e_0_energy">     -5.35915086 </i>
   </energy>
  </scstep>
  <scstep>
   <time name="dav">    0.05    0.05</time>
   <time name="total">    0.05    0.05</time>
   <energy>
    <i name="alphaZ">      2.26997291 </i>
    <i name="ewald">   -135.42777035 </i>
    <i name="hartreedc">     -0.49260956 </i>
    <i name="XCdc">     -8.81661951 </i>
    <i name="pawpsdc">    343.79085144 </i>
    <i name="pawaedc">   -326.20596395 </i>
    <i name="eentropy">     -0.00016568 </i>
    <i name="bandstr">     16.46229442 </i>
    <i name="atom">    103.06077658 </i>
    <i name="e_fr_energy">     -5.35923370 </i>
    <i name="e_wo_entrp">     -5.35906802 </i>
    <i name="e_0_energy">     -5.35915086 </i>
   </energy>
  </scstep>
  <structure>
   <crystal>
    <varray name="basis" >
     <v>       1.95000000       1.95000000       0.00000000 </v>
     <v>       0.00000000       1.95000000       1.95000000 </v>
     <v>       1.95000000       0.00000000       1.95000000 </v>
    </varray>
    <i name="volume">     14.82975000 </i>
    <varray name="rec_basis" >
     <v>       0.25641026       0.25641026      -0.25641026 </v>
     <v>      -0.25641026       0.25641026       0.25641026 </v>
     <v>       0.25641026      -0.25641026       0.25641026 </v>
    </varray>
   </crystal>
   <varray name="positions" >
    <v>       0.00000000       0.00000000       0.00000000 </v>
   </varray>
  </structure>
  <varray name="forces" >
   <v>      -0.00000000       0.00000000      -0.00000000 </v>
  </varray>
  <varray name="stress" >
   <v>     -40.51263774       0.00000000       0.00000000 </v>
   <v>      -0.00000000     -40.51263774      -0.00000000 </v>
   <v>       0.00000000       0.00000000     -40.51263774 </v>
  </varray>
  <energy>
   <i name="e_fr_energy">     -5.35923370 </i>
   <i name="e_wo_entrp">     -5.35906802 </i>
   <i name="e_0_energy">     -5.35915086 </i>
  </energy>
  <time name="totalsc">    0.52    0.53</time>
  <eigenvalues>
   <array>
    <dimension dim="1">band</dimension>
    <dimension dim="2">kpoint</dimension>
    <dimension dim="3">spin</dimension>
    <field>eigene</field>
    <field>occ</field>
    <set>
     <set comment="spin 1">
      <set comment="kpoint 1">
       <r>    2.3138    1.0000 </r>
       <r>    3.0573    1.0000 </r>
       <r>   18.1906    0.0000 </r>
       <r>   18.1906    0.0000 </r>
       <r>   20.7342    0.0000 </r>
       <r>   20.7342    0.0000 </r>
      </set>
      <set comment="kpoint 2">
       <r>    1.1799    1.0000 </r>
       <r>    4.3497    1.0000 </r>
       <r>   18.1808    0.0000 </r>
       <r>   18.1808    0.0000 </r>
       <r>   20.8928    0.0000 </r>
       <r>   20.8928    0.0000 </r>
      </set>
      <set comment="kpoint 3">
       <r>   -0.0959    1.0000 </r>
       <r>    6.1020    1.0000 </r>
       <r>   18.1797    0.0000 </r>
       <r>   18.1797    0.0000 </r>
       <r>   21.3377    0.0000 </r>
       <r>   21.3377    0.0000 </r>
      </set>
      <set comment="kpoint 4">
       <r>   -1.2207    1.0000 </r>
       <r>    8.0158    1.0000 </r>
       <r>   18.2393    0.0000 </r>
       <r>   18.2393    0.0000 </r>
       <r>   22.0028    0.0000 </r>
       <r>   22.0028    0.0000 </r>
      </set>
      <set comment="kpoint 5">
       <r>   -2.1798    1.0000 </r>
       <r>   10.0700    1.0000 </r>
       <r>   18.3941    0.0000 </r>
       <r>   18.3941    0.0000 </r>
       <r>   22.7573    0.0000 </r>
       <r>   22.8088    0.0000 </r>
      </set>
      <set comment="kpoint 6">
       <r>   -2.9679    1.0000 </r>
       <r>   12.2520    1.0000 </r>
       <r>   18.6740    0.0000 </r>
       <r>   18.6740    0.0000 </r>
       <r>   22.8275    0.0000 </r>
       <r>   23.6005    0.0000 </r>
      </set>
      <set comment="kpoint 7">
       <r>   -3.5833    1.0000 </r>
       <r>   14.5374    0.0000 </r>
       <r>   19.0840    0.0000 </r>
       <r>   19.0840    0.0000 </r>
       <r>   22.9206    0.0000 </r>
       <r>   23.8877    0.0000 </r>
      </set>
      <set comment="kpoint 8">
       <r>   -4.0241    1.0000 </r>
       <r>   16.8801    0.0000 </r>
       <r>   19.6213    0.0000 </r>
       <r>   19.6213    0.0000 </r>
       <r>   22.9262    0.0000 </r>
       <r>   23.2565    0.0000 </r>
      </set>
      <set comment="kpoint 9">
       <r>   -4.2891    1.0000 </r>
       <r>   19.1483    0.0000 </r>
       <r>   20.2526    0.0000 </r>
       <r>   20.2526    0.0000 </r>
       <r>   22.3581    0.0000 </r>
       <r>   22.3581    0.0000 </r>
      </set>
      <set comment="kpoint 10">
       <r>   -4.3778    1.0000 </r>
       <r>   20.6957    0.0000 </r>
       <r>   20.6958    0.0000 </r>
       <r>   20.6958    0.0000 </r>
       <r>   21.7714    0.0000 </r>
       <r>   21.7715    0.0000 </r>
      </set>
      <set comment="kpoint 11">
       <r>   -4.3778    1.0000 </r>
       <r>   20.6957    0.0000 </r>
       <r>   20.6958    0.0000 </r>
       <r>   20.6958    0.0000 </r>
       <r>   21.7715    0.0000 </r>
       <r>   21.7715    0.0000 </r>
      </set>
      <set comment="kpoint 12">
       <r>   -4.2596    1.0000 </r>
       <r>   19.4730    0.0000 </r>
       <r>   19.4731    0.0000 </r>
       <r>   20.4135    0.0000 </r>
       <r>   21.1330    0.0000 </r>
       <r>   23.1911    0.0000 </r>
      </set>
      <set comment="kpoint 13">
       <r>   -3.9063    1.0000 </r>
       <r>   17.9977    0.0000 </r>
       <r>   17.9978    0.0000 </r>
       <r>   19.6433    0.0000 </r>
       <r>   19.8083    0.0000 </r>
       <r>   24.7222    0.0000 </r>
      </set>
      <set comment="kpoint 14">
       <r>   -3.3189    1.0000 </r>
       <r>   16.6815    0.0000 </r>
       <r>   16.6815    0.0000 </r>
       <r>   18.4492    0.0000 </r>
       <r>   18.4659    0.0000 </r>
       <r>   21.9650    0.0000 </r>
      </set>
      <set comment="kpoint 15">
       <r>   -2.4993    1.0000 </r>
       <r>   15.5562    0.0000 </r>
       <r>   15.5563    0.0000 </r>
       <r>   16.7276    0.0000 </r>
       <r>   17.2319    0.0000 </r>
       <r>   19.8173    0.0000 </r>
      </set>
      <set comment="kpoint 16">
       <r>   -1.4494    1.0000 </r>
       <r>   14.4015    0.0000 </r>
       <r>   14.6270    0.0000 </r>
       <r>   14.6271    0.0000 </r>
       <r>   16.1903    0.0000 </r>
       <r>   18.4626    0.0000 </r>
      </set>
      <set comment="kpoint 17">
       <r>   -0.1745    1.0000 </r>
       <r>   11.8874    1.0000 </r>
       <r>   13.9040    0.0000 </r>
       <r>   13.9041    0.0000 </r>
       <r>   15.3845    0.0000 </r>
       <r>   17.5839    0.0000 </r>
      </set>
      <set comment="kpoint 18">
       <r>    1.3214    1.0000 </r>
       <r>    9.4367    1.0000 </r>
       <r>   13.3870    0.0000 </r>
       <r>   13.3871    0.0000 </r>
       <r>   14.8067    0.0000 </r>
       <r>   17.0049    0.0000 </r>
      </set>
      <set comment="kpoint 19">
       <r>    3.0225    1.0000 </r>
       <r>    7.1440    1.0000 </r>
       <r>   13.0756    0.0000 </r>
       <r>   13.0757    0.0000 </r>
       <r>   14.4572    0.0000 </r>
       <r>   16.6624    0.0000 </r>
      </set>
      <set comment="kpoint 20">
       <r>    4.6155    1.0000 </r>
       <r>    5.3526    1.0000 </r>
       <r>   12.9717    0.0016 </r>
       <r>   12.9718    0.0016 </r>
       <r>   14.3404    0.0000 </r>
       <r>   16.5527    0.0000 </r>
      </set>
      <set comment="kpoint 21">
       <r>    4.6155    1.0000 </r>
       <r>    5.3526    1.0000 </r>
       <r>   12.9717    0.0016 </r>
       <r>   12.9718    0.0016 </r>
       <r>   14.3404    0.0000 </r>
       <r>   16.5527    0.0000 </r>
      </set>
      <set comment="kpoint 22">
       <r>    4.6294    1.0000 </r>
       <r>    5.3662    1.0000 </r>
       <r>   12.5839    0.9945 </r>
       <r>   12.9847    0.0009 </r>
       <r>   14.6197    0.0000 </r>
       <r>   16.6982    0.0000 </r>
      </set>
      <set comment="kpoint 23">
       <r>    4.6711    1.0000 </r>
       <r>    5.4070    1.0000 </r>
       <r>   11.8423    1.0000 </r>
       <r>   13.0233    0.0001 </r>
       <r>   15.0230    0.0000 </r>
       <r>   17.1473    0.0000 </r>
      </set>
      <set comment="kpoint 24">
       <r>    4.7407    1.0000 </r>
       <r>    5.4745    1.0000 </r>
       <r>   11.0230    1.0000 </r>
       <r>   13.0876    0.0000 </r>
       <r>   15.3135    0.0000 </r>
       <r>   17.8607    0.0000 </r>
      </set>
      <set comment="kpoint 25">
       <r>    4.8380    1.0000 </r>
       <r>    5.5676    1.0000 </r>
       <r>   10.1897    1.0000 </r>
       <r>   13.1776    0.0000 </r>
       <r>   15.5274    0.0000 </r>
       <r>   18.7382    0.0000 </r>
      </set>
      <set comment="kpoint 26">
       <r>    4.9631    1.0000 </r>
       <r>    5.6844    1.0000 </r>
       <r>    9.3649    1.0000 </r>
       <r>   13.2932    0.0000 </r>
       <r>   15.7171    0.0000 </r>
       <r>   19.7059    0.0000 </r>
      </set>
      <set comment="kpoint 27">
       <r>    5.1161    1.0000 </r>
       <r>    5.8199    1.0000 </r>
       <r>    8.5607    1.0000 </r>
       <r>   13.4342    0.0000 </r>
       <r>   15.9094    0.0000 </r>
       <r>   20.7229    0.0000 </r>
      </set>
      <set comment="kpoint 28">
       <r>    5.2970    1.0000 </r>
       <r>    5.9595    1.0000 </r>
       <r>    7.8002    1.0000 </r>
       <r>   13.6007    0.0000 </r>
       <r>   16.1195    0.0000 </r>
       <r>   21.7864    0.0000 </r>
      </set>
      <set comment="kpoint 29">
       <r>    5.5056    1.0000 </r>
       <r>    6.0399    1.0000 </r>
       <r>    7.1465    1.0000 </r>
       <r>   13.7925    0.0000 </r>
       <r>   16.3466    0.0000 </r>
       <r>   22.8592    0.0000 </r>
      </set>
      <set comment="kpoint 30">
       <r>    5.7418    1.0000 </r>
       <r>    5.8143    1.0000 </r>
       <r>    6.8475    1.0000 </r>
       <r>   14.0093    0.0000 </r>
       <r>   16.5890    0.0000 </r>
       <r>   23.9404    0.0000 </r>
      </set>
      <set comment="kpoint 31">
       <r>    5.7418    1.0000 </r>
       <r>    5.8143    1.0000 </r>
       <r>    6.8475    1.0000 </r>
       <r>   14.0093    0.0000 </r>
       <r>   16.5890    0.0000 </r>
       <r>   23.9404    0.0000 </r>
      </set>
      <set comment="kpoint 32">
       <r>    3.9053    1.0000 </r>
       <r>    6.6171    1.0000 </r>
       <r>    7.4927    1.0000 </r>
       <r>   14.8091    0.0000 </r>
       <r>   17.4889    0.0000 </r>
       <r>   27.1484    0.0000 </r>
      </set>
      <set comment="kpoint 33">
       <r>    2.0123    1.0000 </r>
       <r>    7.7406    1.0000 </r>
       <r>    8.5880    1.0000 </r>
       <r>   15.8224    0.0000 </r>
       <r>   18.6114    0.0000 </r>
       <r>   27.1227    0.0000 </r>
      </set>
      <set comment="kpoint 34">
       <r>    0.3407    1.0000 </r>
       <r>    9.1084    1.0000 </r>
       <r>    9.9274    1.0000 </r>
       <r>   17.0259    0.0000 </r>
       <r>   19.9428    0.0000 </r>
       <r>   25.8224    0.0000 </r>
      </set>
      <set comment="kpoint 35">
       <r>   -1.0883    1.0000 </r>
       <r>   10.7179    1.0000 </r>
       <r>   11.4816    1.0000 </r>
       <r>   18.3597    0.0000 </r>
       <r>   21.4545    0.0000 </r>
       <r>   24.8091    0.0000 </r>
      </set>
      <set comment="kpoint 36">
       <r>   -2.2666    1.0000 </r>
       <r>   12.5609    0.9979 </r>
       <r>   13.2261    0.0000 </r>
       <r>   19.6716    0.0000 </r>
       <r>   23.0917    0.0000 </r>
       <r>   23.8417    0.0000 </r>
      </set>
      <set comment="kpoint 37">
       <r>   -3.1873    1.0000 </r>
       <r>   14.6179    0.0000 </r>
       <r>   15.1263    0.0000 </r>
       <r>   20.5453    0.0000 </r>
       <r>   22.9492    0.0000 </r>
       <r>   24.0077    0.0000 </r>
      </set>
      <set comment="kpoint 38">
       <r>   -3.8476    1.0000 </r>
       <r>   16.8540    0.0000 </r>
       <r>   17.1374    0.0000 </r>
       <r>   20.7741    0.0000 </r>
       <r>   22.3107    0.0000 </r>
       <r>   23.3329    0.0000 </r>
      </set>
      <set comment="kpoint 39">
       <r>   -4.2449    1.0000 </r>
       <r>   19.1157    0.0000 </r>
       <r>   19.1645    0.0000 </r>
       <r>   20.7325    0.0000 </r>
       <r>   21.9260    0.0000 </r>
       <r>   22.6333    0.0000 </r>
      </set>
      <set comment="kpoint 40">
       <r>   -4.3778    1.0000 </r>
       <r>   20.6957    0.0000 </r>
       <r>   20.6958    0.0000 </r>
       <r>   20.6958    0.0000 </r>
       <r>   21.7715    0.0000 </r>
       <r>   21.7715    0.0000 </r>
      </set>
     </set>
    </set>
   </array>
  </eigenvalues>
  <separator name="orbital magnetization" >
   <v name="MAGDIPOLOUT">      0.00000000      0.00000000      0.00000000</v>
  </separator>
  <dos>
   <i name="efermi">     12.76373764 </i>
   <total>
    <array>
     <dimension dim="1">gridpoints</dimension>
     <dimension dim="2">spin</dimension>
     <field>energy</field>
     <field>total</field>
     <field>integrated</field>
     <set>
      <set comment="spin 1">
       <r>    -5.9541     0.0000     0.0000 </r>
       <r>    -5.8385     0.0000     0.0000 </r>
       <r>    -5.7229     0.0000     0.0000 </r>
       <r>    -5.6073     0.0000     0.0000 </r>
       <r>    -5.4917     0.0000     0.0000 </r>
       <r>    -5.3761     0.0000     0.0000 </r>
       <r>    -5.2605     0.0000     0.0000 </r>
       <r>    -5.1450     0.0000     0.0000 </r>
       <r>    -5.0294     0.0000     0.0000 </r>
       <r>    -4.9138     0.0000     0.0000 </r>
       <r>    -4.7982     0.0000     0.0000 </r>
       <r>    -4.6826     0.0000     0.0000 </r>
       <r>    -4.5670     0.0049     0.0006 </r>
       <r>    -4.4514     0.1955     0.0232 </r>
       <r>    -4.3358     0.9529     0.1333 </r>
       <r>    -4.2202     1.0731     0.2574 </r>
       <r>    -4.1046     0.4068     0.3044 </r>
       <r>    -3.9890     0.3228     0.3417 </r>
       <r>    -3.8734     0.5131     0.4010 </r>
       <r>    -3.7578     0.3747     0.4443 </r>
       <r>    -3.6422     0.1357     0.4600 </r>
       <r>    -3.5266     0.2551     0.4895 </r>
       <r>    -3.4110     0.1295     0.5045 </r>
       <r>    -3.2954     0.2611     0.5347 </r>
       <r>    -3.1798     0.3571     0.5760 </r>
       <r>    -3.0642     0.2278     0.6023 </r>
       <r>    -2.9486     0.2429     0.6304 </r>
       <r>    -2.8330     0.1577     0.6486 </r>
       <r>    -2.7174     0.0126     0.6500 </r>
       <r>    -2.6018     0.0314     0.6537 </r>
       <r>    -2.4862     0.2165     0.6787 </r>
       <r>    -2.3706     0.2014     0.7020 </r>
       <r>    -2.2550     0.2893     0.7354 </r>
       <r>    -2.1394     0.4202     0.7840 </r>
       <r>    -2.0239     0.1324     0.7993 </r>
       <r>    -1.9083     0.0060     0.8000 </r>
       <r>    -1.7927     0.0000     0.8000 </r>
       <r>    -1.6771     0.0003     0.8000 </r>
       <r>    -1.5615     0.0241     0.8028 </r>
       <r>    -1.4459     0.2007     0.8260 </r>
       <r>    -1.3303     0.2138     0.8507 </r>
       <r>    -1.2147     0.2403     0.8785 </r>
       <r>    -1.0991     0.3575     0.9198 </r>
       <r>    -0.9835     0.2308     0.9465 </r>
       <r>    -0.8679     0.0297     0.9500 </r>
       <r>    -0.7523     0.0004     0.9500 </r>
       <r>    -0.6367     0.0000     0.9500 </r>
       <r>    -0.5211     0.0000     0.9500 </r>
       <r>    -0.4055     0.0002     0.9500 </r>
       <r>    -0.2899     0.0233     0.9527 </r>
       <r>    -0.1743     0.2512     0.9818 </r>
       <r>    -0.0587     0.4390     1.0325 </r>
       <r>     0.0569     0.1446     1.0492 </r>
       <r>     0.1725     0.0106     1.0504 </r>
       <r>     0.2881     0.0951     1.0614 </r>
       <r>     0.4037     0.2531     1.0907 </r>
       <r>     0.5193     0.0782     1.0997 </r>
       <r>     0.6349     0.0025     1.1000 </r>
       <r>     0.7505     0.0000     1.1000 </r>
       <r>     0.8661     0.0000     1.1000 </r>
       <r>     0.9816     0.0011     1.1001 </r>
       <r>     1.0972     0.0516     1.1061 </r>
       <r>     1.2128     0.2680     1.1371 </r>
       <r>     1.3284     0.3375     1.1761 </r>
       <r>     1.4440     0.1889     1.1979 </r>
       <r>     1.5596     0.0178     1.2000 </r>
       <r>     1.6752     0.0002     1.2000 </r>
       <r>     1.7908     0.0004     1.2000 </r>
       <r>     1.9064     0.0287     1.2034 </r>
       <r>     2.0220     0.2108     1.2277 </r>
       <r>     2.1376     0.1789     1.2484 </r>
       <r>     2.2532     0.0983     1.2598 </r>
       <r>     2.3688     0.2536     1.2891 </r>
       <r>     2.4844     0.0910     1.2996 </r>
       <r>     2.6000     0.0034     1.3000 </r>
       <r>     2.7156     0.0000     1.3000 </r>
       <r>     2.8312     0.0018     1.3002 </r>
       <r>     2.9468     0.0853     1.3101 </r>
       <r>     3.0624     0.4504     1.3621 </r>
       <r>     3.1780     0.3027     1.3971 </r>
       <r>     3.2936     0.0248     1.4000 </r>
       <r>     3.4092     0.0002     1.4000 </r>
       <r>     3.5248     0.0000     1.4000 </r>
       <r>     3.6404     0.0000     1.4000 </r>
       <r>     3.7560     0.0075     1.4009 </r>
       <r>     3.8716     0.1295     1.4158 </r>
       <r>     3.9871     0.2422     1.4438 </r>
       <r>     4.1027     0.0524     1.4499 </r>
       <r>     4.2183     0.0147     1.4516 </r>
       <r>     4.3339     0.1646     1.4706 </r>
       <r>     4.4495     0.2311     1.4973 </r>
       <r>     4.5651     0.3389     1.5365 </r>
       <r>     4.6807     1.0575     1.6587 </r>
       <r>     4.7963     0.7953     1.7507 </r>
       <r>     4.9119     0.4615     1.8040 </r>
       <r>     5.0275     0.3633     1.8460 </r>
       <r>     5.1431     0.3209     1.8831 </r>
       <r>     5.2587     0.3796     1.9270 </r>
       <r>     5.3743     1.1005     2.0542 </r>
       <r>     5.4899     1.2276     2.1961 </r>
       <r>     5.6055     0.8039     2.2890 </r>
       <r>     5.7211     0.8390     2.3860 </r>
       <r>     5.8367     1.2847     2.5345 </r>
       <r>     5.9523     0.7824     2.6250 </r>
       <r>     6.0679     0.6081     2.6953 </r>
       <r>     6.1835     0.4101     2.7427 </r>
       <r>     6.2991     0.0621     2.7499 </r>
       <r>     6.4147     0.0021     2.7501 </r>
       <r>     6.5303     0.0466     2.7555 </r>
       <r>     6.6459     0.2390     2.7831 </r>
       <r>     6.7615     0.2339     2.8102 </r>
       <r>     6.8771     0.4849     2.8662 </r>
       <r>     6.9926     0.2884     2.8995 </r>
       <r>     7.1082     0.2637     2.9300 </r>
       <r>     7.2238     0.4901     2.9867 </r>
       <r>     7.3394     0.1191     3.0005 </r>
       <r>     7.4550     0.1245     3.0148 </r>
       <r>     7.5706     0.2493     3.0437 </r>
       <r>     7.6862     0.1721     3.0636 </r>
       <r>     7.8018     0.4523     3.1159 </r>
       <r>     7.9174     0.3072     3.1514 </r>
       <r>     8.0330     0.2459     3.1798 </r>
       <r>     8.1486     0.1618     3.1985 </r>
       <r>     8.2642     0.0130     3.2000 </r>
       <r>     8.3798     0.0031     3.2003 </r>
       <r>     8.4954     0.1151     3.2136 </r>
       <r>     8.6110     0.4827     3.2694 </r>
       <r>     8.7266     0.2494     3.2983 </r>
       <r>     8.8422     0.0149     3.3000 </r>
       <r>     8.9578     0.0072     3.3008 </r>
       <r>     9.0734     0.1270     3.3155 </r>
       <r>     9.1890     0.2462     3.3440 </r>
       <r>     9.3046     0.1494     3.3612 </r>
       <r>     9.4202     0.4175     3.4095 </r>
       <r>     9.5358     0.3120     3.4456 </r>
       <r>     9.6514     0.0378     3.4499 </r>
       <r>     9.7670     0.0055     3.4506 </r>
       <r>     9.8826     0.1104     3.4633 </r>
       <r>     9.9981     0.3169     3.5000 </r>
       <r>    10.1137     0.3761     3.5434 </r>
       <r>    10.2293     0.3596     3.5850 </r>
       <r>    10.3449     0.1235     3.5993 </r>
       <r>    10.4605     0.0061     3.6000 </r>
       <r>    10.5761     0.0097     3.6011 </r>
       <r>    10.6917     0.1441     3.6178 </r>
       <r>    10.8073     0.2346     3.6449 </r>
       <r>    10.9229     0.0772     3.6538 </r>
       <r>    11.0385     0.2207     3.6794 </r>
       <r>    11.1541     0.1649     3.6984 </r>
       <r>    11.2697     0.0142     3.7001 </r>
       <r>    11.3853     0.0370     3.7043 </r>
       <r>    11.5009     0.2253     3.7304 </r>
       <r>    11.6165     0.1579     3.7486 </r>
       <r>    11.7321     0.0436     3.7537 </r>
       <r>    11.8477     0.3219     3.7909 </r>
       <r>    11.9633     0.4314     3.8407 </r>
       <r>    12.0789     0.0815     3.8502 </r>
       <r>    12.1945     0.0884     3.8604 </r>
       <r>    12.3101     0.2537     3.8897 </r>
       <r>    12.4257     0.1034     3.9017 </r>
       <r>    12.5413     0.2727     3.9332 </r>
       <r>    12.6569     0.4748     3.9881 </r>
       <r>    12.7725     0.1057     4.0003 </r>
       <r>    12.8881     0.2557     4.0299 </r>
       <r>    13.0037     1.5265     4.2063 </r>
       <r>    13.1192     1.7716     4.4111 </r>
       <r>    13.2348     0.9996     4.5266 </r>
       <r>    13.3504     0.8364     4.6233 </r>
       <r>    13.4660     0.8494     4.7215 </r>
       <r>    13.5816     0.4066     4.7685 </r>
       <r>    13.6972     0.2749     4.8003 </r>
       <r>    13.8128     0.3495     4.8407 </r>
       <r>    13.9284     0.7272     4.9248 </r>
       <r>    14.0440     0.7930     5.0164 </r>
       <r>    14.1596     0.2804     5.0489 </r>
       <r>    14.2752     0.1822     5.0699 </r>
       <r>    14.3908     0.7614     5.1579 </r>
       <r>    14.5064     0.8828     5.2600 </r>
       <r>    14.6220     1.1514     5.3931 </r>
       <r>    14.7376     0.9713     5.5053 </r>
       <r>    14.8532     0.5956     5.5742 </r>
       <r>    14.9688     0.3148     5.6106 </r>
       <r>    15.0844     0.3776     5.6542 </r>
       <r>    15.2000     0.3544     5.6952 </r>
       <r>    15.3156     0.3335     5.7338 </r>
       <r>    15.4312     0.5130     5.7931 </r>
       <r>    15.5468     0.7079     5.8749 </r>
       <r>    15.6624     0.6800     5.9535 </r>
       <r>    15.7780     0.4455     6.0050 </r>
       <r>    15.8936     0.4969     6.0624 </r>
       <r>    16.0092     0.3168     6.0991 </r>
       <r>    16.1247     0.3136     6.1353 </r>
       <r>    16.2403     0.4659     6.1892 </r>
       <r>    16.3559     0.3311     6.2274 </r>
       <r>    16.4715     0.3320     6.2658 </r>
       <r>    16.5871     1.0570     6.3880 </r>
       <r>    16.7027     1.7131     6.5860 </r>
       <r>    16.8183     1.1119     6.7146 </r>
       <r>    16.9339     0.6968     6.7951 </r>
       <r>    17.0495     0.7131     6.8776 </r>
       <r>    17.1651     0.7947     6.9694 </r>
       <r>    17.2807     0.5698     7.0353 </r>
       <r>    17.3963     0.1657     7.0544 </r>
       <r>    17.5119     0.2998     7.0891 </r>
       <r>    17.6275     0.4001     7.1353 </r>
       <r>    17.7431     0.1424     7.1518 </r>
       <r>    17.8587     0.2171     7.1769 </r>
       <r>    17.9743     0.5008     7.2348 </r>
       <r>    18.0899     0.7366     7.3200 </r>
       <r>    18.2055     1.7206     7.5188 </r>
       <r>    18.3211     1.6826     7.7133 </r>
       <r>    18.4367     1.3733     7.8721 </r>
       <r>    18.5523     1.0962     7.9988 </r>
       <r>    18.6679     0.8206     8.0937 </r>
       <r>    18.7835     0.7510     8.1805 </r>
       <r>    18.8991     0.1677     8.1999 </r>
       <r>    19.0147     0.1957     8.2225 </r>
       <r>    19.1302     1.0086     8.3391 </r>
       <r>    19.2458     0.8459     8.4369 </r>
       <r>    19.3614     0.1614     8.4555 </r>
       <r>    19.4770     0.4277     8.5050 </r>
       <r>    19.5926     0.8307     8.6010 </r>
       <r>    19.7082     1.2684     8.7476 </r>
       <r>    19.8238     0.9277     8.8549 </r>
       <r>    19.9394     0.5664     8.9203 </r>
       <r>    20.0550     0.2343     8.9474 </r>
       <r>    20.1706     0.1287     8.9623 </r>
       <r>    20.2862     0.4998     9.0201 </r>
       <r>    20.4018     0.4410     9.0711 </r>
       <r>    20.5174     0.3947     9.1167 </r>
       <r>    20.6330     1.1251     9.2467 </r>
       <r>    20.7486     3.3779     9.6372 </r>
       <r>    20.8642     2.0080     9.8693 </r>
       <r>    20.9798     0.6085     9.9397 </r>
       <r>    21.0954     0.2165     9.9647 </r>
       <r>    21.2110     0.2788     9.9969 </r>
       <r>    21.3266     0.4189    10.0453 </r>
       <r>    21.4422     0.5989    10.1146 </r>
       <r>    21.5578     0.2781    10.1467 </r>
       <r>    21.6734     0.2663    10.1775 </r>
       <r>    21.7890     1.5508    10.3568 </r>
       <r>    21.9046     1.4618    10.5257 </r>
       <r>    22.0202     1.0242    10.6441 </r>
       <r>    22.1357     0.4568    10.6969 </r>
       <r>    22.2513     0.1697    10.7166 </r>
       <r>    22.3669     0.6727    10.7943 </r>
       <r>    22.4825     0.4516    10.8465 </r>
       <r>    22.5981     0.1698    10.8662 </r>
       <r>    22.7137     0.4259    10.9154 </r>
       <r>    22.8293     0.9626    11.0267 </r>
       <r>    22.9449     1.3015    11.1771 </r>
       <r>    23.0605     0.7394    11.2626 </r>
       <r>    23.1761     0.5139    11.3220 </r>
       <r>    23.2917     0.6278    11.3946 </r>
       <r>    23.4073     0.4101    11.4420 </r>
       <r>    23.5229     0.1268    11.4566 </r>
       <r>    23.6385     0.2483    11.4853 </r>
       <r>    23.7541     0.1835    11.5065 </r>
       <r>    23.8697     0.5474    11.5698 </r>
       <r>    23.9853     1.0162    11.6873 </r>
       <r>    24.1009     0.4914    11.7441 </r>
       <r>    24.2165     0.0505    11.7499 </r>
       <r>    24.3321     0.0007    11.7500 </r>
       <r>    24.4477     0.0000    11.7500 </r>
       <r>    24.5633     0.0054    11.7506 </r>
       <r>    24.6789     0.1254    11.7651 </r>
       <r>    24.7945     0.4160    11.8132 </r>
       <r>    24.9101     0.2833    11.8460 </r>
       <r>    25.0257     0.0344    11.8499 </r>
       <r>    25.1413     0.0005    11.8500 </r>
       <r>    25.2568     0.0000    11.8500 </r>
       <r>    25.3724     0.0000    11.8500 </r>
       <r>    25.4880     0.0000    11.8500 </r>
       <r>    25.6036     0.0004    11.8500 </r>
       <r>    25.7192     0.0308    11.8536 </r>
       <r>    25.8348     0.2152    11.8785 </r>
       <r>    25.9504     0.1709    11.8982 </r>
       <r>    26.0660     0.0151    11.9000 </r>
       <r>    26.1816     0.0001    11.9000 </r>
       <r>    26.2972     0.0000    11.9000 </r>
       <r>    26.4128     0.0000    11.9000 </r>
       <r>    26.5284     0.0000    11.9000 </r>
       <r>    26.6440     0.0000    11.9000 </r>
       <r>    26.7596     0.0000    11.9000 </r>
       <r>    26.8752     0.0001    11.9000 </r>
       <r>    26.9908     0.0189    11.9022 </r>
       <r>    27.1064     0.2772    11.9342 </r>
       <r>    27.2220     0.4697    11.9885 </r>
       <r>    27.3376     0.0971    11.9998 </r>
       <r>    27.4532     0.0021    12.0000 </r>
       <r>    27.5688     0.0000    12.0000 </r>
       <r>    27.6844     0.0000    12.0000 </r>
       <r>    27.8000     0.0000    12.0000 </r>
       <r>    27.9156     0.0000    12.0000 </r>
       <r>    28.0312     0.0000    12.0000 </r>
       <r>    28.1468     0.0000    12.0000 </r>
       <r>    28.2623     0.0000    12.0000 </r>
       <r>    28.3779     0.0000    12.0000 </r>
       <r>    28.4935     0.0000    12.0000 </r>
       <r>    28.6091     0.0000    12.0000 </r>
       <r>    28.7247     0.0000    12.0000 </r>
      </set>
     </set>
    </array>
   </total>
   <partial>
    <array>
     <dimension dim="1">gridpoints</dimension>
     <dimension dim="2">spin</dimension>
     <dimension dim="3">ion</dimension>
     <field>energy</field>
     <field>    s</field>
     <field>   py</field>
     <field>   pz</field>
     <field>   px</field>
     <field>  dxy</field>
     <field>  dyz</field>
     <field>  dz2</field>
     <field>  dxz</field>
     <field>x2-y2</field>
     <set>
      <set comment="ion 1">
       <set comment="spin 1">
        <r>    -5.9541     0.0000     0.0000     0.0000     0.0000     0.0000     0.0000     0.0000     0.0000     0.0000 </r>
        <r>    -5.8385     0.0000     0.0000     0.0000     0.0000     0.0000     0.0000     0.0000     0.0000     0.0000 </r>
        <r>    -5.7229     0.0000     0.0000     0.0000     0.0000     0.0000     0.0000     0.0000     0.0000     0.0000 </r>
        <r>    -5.6073     0.0000     0.0000     0.0000     0.0000     0.0000     0.0000     0.0000     0.0000     0.0000 </r>
        <r>    -5.4917     0.0000     0.0000     0.0000     0.0000     0.0000     0.0000     0.0000     0.0000     0.0000 </r>
        <r>    -5.3761     0.0000     0.0000     0.0000     0.0000     0.0000     0.0000     0.0000     0.0000     0.0000 </r>
        <r>    -5.2605     0.0000     0.0000     0.0000     0.0000     0.0000     0.0000     0.0000     0.0000     0.0000 </r>
        <r>    -5.1450     0.0000     0.0000     0.0000     0.0000     0.0000     0.0000     0.0000     0.0000     0.0000 </r>
        <r>    -5.0294     0.0000     0.0000     0.0000     0.0000     0.0000     0.0000     0.0000     0.0000     0.0000 </r>
        <r>    -4.9138     0.0000     0.0000     0.0000     0.0000     0.0000     0.0000     0.0000     0.0000     0.0000 </r>
        <r>    -4.7982     0.0000     0.0000     0.0000     0.0000     0.0000     0.0000     0.0000     0.0000     0.0000 </r>
        <r>    -4.6826     0.0000     0.0000     0.0000     0.0000     0.0000     0.0000     0.0000     0.0000     0.0000 </r>
        <r>    -4.5670     0.0019     0.0000     0.0000     0.0000     0.0000     0.0000     0.0000     0.0000     0.0000 </r>
        <r>    -4.4514     0.0750     0.0000     0.0000     0.0000     0.0000     0.0000     0.0000     0.0000     0.0000 </r>
        <r>    -4.3358     0.3655     0.0002     0.0002     0.0002     0.0000     0.0000     0.0000     0.0000     0.0000 </r>
        <r>    -4.2202     0.4106     0.0007     0.0007     0.0007     0.0000     0.0000     0.0000     0.0000     0.0000 </r>
        <r>    -4.1046     0.1551     0.0005     0.0005     0.0005     0.0000     0.0000     0.0000     0.0000     0.0000 </r>
        <r>    -3.9890     0.1215     0.0010     0.0010     0.0010     0.0000     0.0000     0.0000     0.0000     0.0000 </r>
        <r>    -3.8734     0.1921     0.0020     0.0020     0.0020     0.0000     0.0000     0.0000     0.0000     0.0000 </r>
        <r>    -3.7578     0.1399     0.0016     0.0016     0.0016     0.0000     0.0000     0.0000     0.0000     0.0000 </r>
        <r>    -3.6422     0.0501     0.0008     0.0008     0.0008     0.0000     0.0000     0.0000     0.0000     0.0000 </r>
        <r>    -3.5266     0.0936     0.0017     0.0017     0.0017     0.0000     0.0000     0.0000     0.0000     0.0000 </r>
        <r>    -3.4110     0.0473     0.0009     0.0009     0.0009     0.0000     0.0000     0.0000     0.0000     0.0000 </r>
        <r>    -3.2954     0.0941     0.0023     0.0023     0.0023     0.0000     0.0000     0.0000     0.0000     0.0000 </r>
        <r>    -3.1798     0.1283     0.0034     0.0034     0.0034     0.0000     0.0000     0.0000     0.0000     0.0000 </r>
        <r>    -3.0642     0.0814     0.0023     0.0023     0.0023     0.0000     0.0000     0.0000     0.0000     0.0000 </r>
        <r>    -2.9486     0.0860     0.0027     0.0027     0.0027     0.0000     0.0000     0.0000     0.0000     0.0000 </r>
        <r>    -2.8330     0.0558     0.0018     0.0018     0.0018     0.0000     0.0000     0.0000     0.0000     0.0000 </r>
        <r>    -2.7174     0.0044     0.0001     0.0001     0.0001     0.0000     0.0000     0.0000     0.0000     0.0000 </r>
        <r>    -2.6018     0.0108     0.0005     0.0005     0.0005     0.0000     0.0000     0.0000     0.0000     0.0000 </r>
        <r>    -2.4862     0.0742     0.0033     0.0033     0.0033     0.0000     0.0000     0.0000     0.0000     0.0000 </r>
        <r>    -2.3706     0.0689     0.0031     0.0031     0.0031     0.0000     0.0000     0.0000     0.0000     0.0000 </r>
        <r>    -2.2550     0.0980     0.0048     0.0048     0.0048     0.0000     0.0000     0.0000     0.0000     0.0000 </r>
        <r>    -2.1394     0.1422     0.0071     0.0071     0.0071     0.0000     0.0000     0.0000     0.0000     0.0000 </r>
        <r>    -2.0239     0.0448     0.0023     0.0023     0.0023     0.0000     0.0000     0.0000     0.0000     0.0000 </r>
        <r>    -1.9083     0.0020     0.0001     0.0001     0.0001     0.0000     0.0000     0.0000     0.0000     0.0000 </r>
        <r>    -1.7927     0.0000     0.0000     0.0000     0.0000     0.0000     0.0000     0.0000     0.0000     0.0000 </r>
        <r>    -1.6771     0.0001     0.0000     0.0000     0.0000     0.0000     0.0000     0.0000     0.0000     0.0000 </r>
        <r>    -1.5615     0.0077     0.0006     0.0006     0.0006     0.0000     0.0000     0.0000     0.0000     0.0000 </r>
        <r>    -1.4459     0.0644     0.0047     0.0047     0.0047     0.0000     0.0000     0.0000     0.0000     0.0000 </r>
        <r>    -1.3303     0.0686     0.0050     0.0050     0.0050     0.0000     0.0000     0.0000     0.0000     0.0000 </r>
        <r>    -1.2147     0.0773     0.0057     0.0057     0.0057     0.0000     0.0000     0.0000     0.0000     0.0000 </r>
        <r>    -1.0991     0.1143     0.0087     0.0087     0.0087     0.0000     0.0000     0.0000     0.0000     0.0000 </r>
        <r>    -0.9835     0.0733     0.0058     0.0058     0.0058     0.0000     0.0000     0.0000     0.0000     0.0000 </r>
        <r>    -0.8679     0.0094     0.0007     0.0007     0.0007     0.0000     0.0000     0.0000     0.0000     0.0000 </r>
        <r>    -0.7523     0.0001     0.0000     0.0000     0.0000     0.0000     0.0000     0.0000     0.0000     0.0000 </r>
        <r>    -0.6367     0.0000     0.0000     0.0000     0.0000     0.0000     0.0000     0.0000     0.0000     0.0000 </r>
        <r>    -0.5211     0.0000     0.0000     0.0000     0.0000     0.0000     0.0000     0.0000     0.0000     0.0000 </r>
        <r>    -0.4055     0.0001     0.0000     0.0000     0.0000     0.0000     0.0000     0.0000     0.0000     0.0000 </r>
        <r>    -0.2899     0.0069     0.0008     0.0008     0.0008     0.0000     0.0000     0.0000     0.0000     0.0000 </r>
        <r>    -0.1743     0.0745     0.0081     0.0081     0.0081     0.0000     0.0000     0.0000     0.0000     0.0000 </r>
        <r>    -0.0587     0.1323     0.0137     0.0137     0.0137     0.0000     0.0000     0.0000     0.0000     0.0000 </r>
        <r>     0.0569     0.0441     0.0044     0.0044     0.0044     0.0000     0.0000     0.0000     0.0000     0.0000 </r>
        <r>     0.1725     0.0032     0.0003     0.0003     0.0003     0.0000     0.0000     0.0000     0.0000     0.0000 </r>
        <r>     0.2881     0.0279     0.0032     0.0032     0.0032     0.0000     0.0000     0.0000     0.0000     0.0000 </r>
        <r>     0.4037     0.0742     0.0086     0.0086     0.0086     0.0000     0.0000     0.0000     0.0000     0.0000 </r>
        <r>     0.5193     0.0229     0.0027     0.0027     0.0027     0.0000     0.0000     0.0000     0.0000     0.0000 </r>
        <r>     0.6349     0.0007     0.0001     0.0001     0.0001     0.0000     0.0000     0.0000     0.0000     0.0000 </r>
        <r>     0.7505     0.0000     0.0000     0.0000     0.0000     0.0000     0.0000     0.0000     0.0000     0.0000 </r>
        <r>     0.8661     0.0000     0.0000     0.0000     0.0000     0.0000     0.0000     0.0000     0.0000     0.0000 </r>
        <r>     0.9816     0.0003     0.0000     0.0000     0.0000     0.0000     0.0000     0.0000     0.0000     0.0000 </r>
        <r>     1.0972     0.0158     0.0017     0.0017     0.0017     0.0000     0.0000     0.0000     0.0000     0.0000 </r>
        <r>     1.2128     0.0811     0.0089     0.0089     0.0089     0.0000     0.0000     0.0000     0.0000     0.0000 </r>
        <r>     1.3284     0.0943     0.0134     0.0134     0.0134     0.0000     0.0000     0.0000     0.0000     0.0000 </r>
        <r>     1.4440     0.0498     0.0083     0.0083     0.0083     0.0000     0.0000     0.0000     0.0000     0.0000 </r>
        <r>     1.5596     0.0047     0.0008     0.0008     0.0008     0.0000     0.0000     0.0000     0.0000     0.0000 </r>
        <r>     1.6752     0.0000     0.0000     0.0000     0.0000     0.0000     0.0000     0.0000     0.0000     0.0000 </r>
        <r>     1.7908     0.0001     0.0000     0.0000     0.0000     0.0000     0.0000     0.0000     0.0000     0.0000 </r>
        <r>     1.9064     0.0078     0.0012     0.0012     0.0012     0.0000     0.0000     0.0000     0.0000     0.0000 </r>
        <r>     2.0220     0.0572     0.0091     0.0091     0.0091     0.0000     0.0000     0.0000     0.0000     0.0000 </r>
        <r>     2.1376     0.0491     0.0076     0.0076     0.0076     0.0000     0.0000     0.0000     0.0000     0.0000 </r>
        <r>     2.2532     0.0417     0.0007     0.0007     0.0007     0.0000     0.0000     0.0000     0.0000     0.0000 </r>
        <r>     2.3688     0.1152     0.0000     0.0000     0.0000     0.0000     0.0000     0.0000     0.0000     0.0000 </r>
        <r>     2.4844     0.0413     0.0000     0.0000     0.0000     0.0000     0.0000     0.0000     0.0000     0.0000 </r>
        <r>     2.6000     0.0015     0.0000     0.0000     0.0000     0.0000     0.0000     0.0000     0.0000     0.0000 </r>
        <r>     2.7156     0.0000     0.0000     0.0000     0.0000     0.0000     0.0000     0.0000     0.0000     0.0000 </r>
        <r>     2.8312     0.0003     0.0001     0.0001     0.0001     0.0000     0.0000     0.0000     0.0000     0.0000 </r>
        <r>     2.9468     0.0129     0.0062     0.0062     0.0062     0.0000     0.0000     0.0000     0.0000     0.0000 </r>
        <r>     3.0624     0.0531     0.0362     0.0362     0.0362     0.0000     0.0000     0.0000     0.0000     0.0000 </r>
        <r>     3.1780     0.0253     0.0265     0.0265     0.0265     0.0000     0.0000     0.0000     0.0000     0.0000 </r>
        <r>     3.2936     0.0013     0.0023     0.0023     0.0023     0.0000     0.0000     0.0000     0.0000     0.0000 </r>
        <r>     3.4092     0.0000     0.0000     0.0000     0.0000     0.0000     0.0000     0.0000     0.0000     0.0000 </r>
        <r>     3.5248     0.0000     0.0000     0.0000     0.0000     0.0000     0.0000     0.0000     0.0000     0.0000 </r>
        <r>     3.6404     0.0000     0.0000     0.0000     0.0000     0.0000     0.0000     0.0000     0.0000     0.0000 </r>
        <r>     3.7560     0.0020     0.0004     0.0004     0.0004     0.0000     0.0000     0.0000     0.0000     0.0000 </r>
        <r>     3.8716     0.0345     0.0063     0.0063     0.0063     0.0000     0.0000     0.0000     0.0000     0.0000 </r>
        <r>     3.9871     0.0645     0.0118     0.0118     0.0118     0.0000     0.0000     0.0000     0.0000     0.0000 </r>
        <r>     4.1027     0.0139     0.0026     0.0026     0.0026     0.0000     0.0000     0.0000     0.0000     0.0000 </r>
        <r>     4.2183     0.0023     0.0011     0.0011     0.0011     0.0000     0.0000     0.0000     0.0000     0.0000 </r>
        <r>     4.3339     0.0240     0.0121     0.0121     0.0121     0.0000     0.0000     0.0000     0.0000     0.0000 </r>
        <r>     4.4495     0.0321     0.0174     0.0174     0.0174     0.0000     0.0000     0.0000     0.0000     0.0000 </r>
        <r>     4.5651     0.0049     0.0385     0.0385     0.0385     0.0000     0.0000     0.0000     0.0000     0.0000 </r>
        <r>     4.6807     0.0001     0.1247     0.1247     0.1247     0.0000     0.0000     0.0000     0.0000     0.0000 </r>
        <r>     4.7963     0.0000     0.0936     0.0936     0.0936     0.0000     0.0000     0.0000     0.0000     0.0000 </r>
        <r>     4.9119     0.0000     0.0540     0.0540     0.0540     0.0000     0.0000     0.0000     0.0000     0.0000 </r>
        <r>     5.0275     0.0000     0.0424     0.0424     0.0424     0.0000     0.0000     0.0000     0.0000     0.0000 </r>
        <r>     5.1431     0.0008     0.0371     0.0371     0.0371     0.0000     0.0000     0.0000     0.0000     0.0000 </r>
        <r>     5.2587     0.0522     0.0307     0.0307     0.0307     0.0000     0.0000     0.0000     0.0000     0.0000 </r>
        <r>     5.3743     0.3809     0.0311     0.0311     0.0311     0.0000     0.0000     0.0000     0.0000     0.0000 </r>
        <r>     5.4899     0.4608     0.0260     0.0260     0.0260     0.0000     0.0000     0.0000     0.0000     0.0000 </r>
        <r>     5.6055     0.2577     0.0288     0.0288     0.0288     0.0000     0.0000     0.0000     0.0000     0.0000 </r>
        <r>     5.7211     0.2293     0.0417     0.0417     0.0417     0.0000     0.0000     0.0000     0.0000     0.0000 </r>
        <r>     5.8367     0.3802     0.0627     0.0627     0.0627     0.0000     0.0000     0.0000     0.0000     0.0000 </r>
        <r>     5.9523     0.3316     0.0166     0.0166     0.0166     0.0000     0.0000     0.0000     0.0000     0.0000 </r>
        <r>     6.0679     0.2646     0.0108     0.0108     0.0108     0.0000     0.0000     0.0000     0.0000     0.0000 </r>
        <r>     6.1835     0.1235     0.0184     0.0184     0.0184     0.0000     0.0000     0.0000     0.0000     0.0000 </r>
        <r>     6.2991     0.0126     0.0040     0.0040     0.0040     0.0000     0.0000     0.0000     0.0000     0.0000 </r>
        <r>     6.4147     0.0002     0.0002     0.0002     0.0002     0.0000     0.0000     0.0000     0.0000     0.0000 </r>
        <r>     6.5303     0.0000     0.0051     0.0051     0.0051     0.0000     0.0000     0.0000     0.0000     0.0000 </r>
        <r>     6.6459     0.0002     0.0263     0.0263     0.0263     0.0000     0.0000     0.0000     0.0000     0.0000 </r>
        <r>     6.7615     0.0090     0.0221     0.0221     0.0221     0.0000     0.0000     0.0000     0.0000     0.0000 </r>
        <r>     6.8771     0.0452     0.0347     0.0347     0.0347     0.0000     0.0000     0.0000     0.0000     0.0000 </r>
        <r>     6.9926     0.0278     0.0205     0.0205     0.0205     0.0000     0.0000     0.0000     0.0000     0.0000 </r>
        <r>     7.1082     0.0324     0.0198     0.0198     0.0198     0.0000     0.0000     0.0000     0.0000     0.0000 </r>
        <r>     7.2238     0.0597     0.0371     0.0371     0.0371     0.0000     0.0000     0.0000     0.0000     0.0000 </r>
        <r>     7.3394     0.0152     0.0089     0.0089     0.0089     0.0000     0.0000     0.0000     0.0000     0.0000 </r>
        <r>     7.4550     0.0344     0.0058     0.0058     0.0058     0.0000     0.0000     0.0000     0.0000     0.0000 </r>
        <r>     7.5706     0.0688     0.0116     0.0116     0.0116     0.0000     0.0000     0.0000     0.0000     0.0000 </r>
        <r>     7.6862     0.0167     0.0146     0.0146     0.0146     0.0000     0.0000     0.0000     0.0000     0.0000 </r>
        <r>     7.8018     0.0064     0.0453     0.0453     0.0453     0.0000     0.0000     0.0000     0.0000     0.0000 </r>
        <r>     7.9174     0.0100     0.0291     0.0291     0.0291     0.0000     0.0000     0.0000     0.0000     0.0000 </r>
        <r>     8.0330     0.0279     0.0203     0.0203     0.0203     0.0000     0.0000     0.0000     0.0000     0.0000 </r>
        <r>     8.1486     0.0198     0.0132     0.0132     0.0132     0.0000     0.0000     0.0000     0.0000     0.0000 </r>
        <r>     8.2642     0.0016     0.0011     0.0011     0.0011     0.0000     0.0000     0.0000     0.0000     0.0000 </r>
        <r>     8.3798     0.0003     0.0003     0.0003     0.0003     0.0000     0.0000     0.0000     0.0000     0.0000 </r>
        <r>     8.4954     0.0145     0.0092     0.0092     0.0092     0.0000     0.0000     0.0000     0.0000     0.0000 </r>
        <r>     8.6110     0.0745     0.0362     0.0362     0.0362     0.0000     0.0000     0.0000     0.0000     0.0000 </r>
        <r>     8.7266     0.0456     0.0176     0.0176     0.0176     0.0000     0.0000     0.0000     0.0000     0.0000 </r>
        <r>     8.8422     0.0031     0.0010     0.0010     0.0010     0.0000     0.0000     0.0000     0.0000     0.0000 </r>
        <r>     8.9578     0.0000     0.0007     0.0007     0.0007     0.0000     0.0000     0.0000     0.0000     0.0000 </r>
        <r>     9.0734     0.0000     0.0131     0.0131     0.0131     0.0000     0.0000     0.0000     0.0000     0.0000 </r>
        <r>     9.1890     0.0002     0.0254     0.0254     0.0254     0.0000     0.0000     0.0000     0.0000     0.0000 </r>
        <r>     9.3046     0.0068     0.0144     0.0144     0.0144     0.0000     0.0000     0.0000     0.0000     0.0000 </r>
        <r>     9.4202     0.0454     0.0364     0.0364     0.0364     0.0000     0.0000     0.0000     0.0000     0.0000 </r>
        <r>     9.5358     0.0492     0.0252     0.0252     0.0252     0.0000     0.0000     0.0000     0.0000     0.0000 </r>
        <r>     9.6514     0.0071     0.0029     0.0029     0.0029     0.0000     0.0000     0.0000     0.0000     0.0000 </r>
        <r>     9.7670     0.0013     0.0004     0.0004     0.0004     0.0000     0.0000     0.0000     0.0000     0.0000 </r>
        <r>     9.8826     0.0263     0.0079     0.0079     0.0079     0.0000     0.0000     0.0000     0.0000     0.0000 </r>
        <r>     9.9981     0.0665     0.0236     0.0236     0.0236     0.0000     0.0000     0.0000     0.0000     0.0000 </r>
        <r>    10.1137     0.0434     0.0326     0.0326     0.0326     0.0000     0.0000     0.0000     0.0000     0.0000 </r>
        <r>    10.2293     0.0225     0.0342     0.0342     0.0342     0.0000     0.0000     0.0000     0.0000     0.0000 </r>
        <r>    10.3449     0.0059     0.0121     0.0121     0.0121     0.0000     0.0000     0.0000     0.0000     0.0000 </r>
        <r>    10.4605     0.0003     0.0006     0.0006     0.0006     0.0000     0.0000     0.0000     0.0000     0.0000 </r>
        <r>    10.5761     0.0000     0.0010     0.0010     0.0010     0.0000     0.0000     0.0000     0.0000     0.0000 </r>
        <r>    10.6917     0.0000     0.0144     0.0144     0.0144     0.0000     0.0000     0.0000     0.0000     0.0000 </r>
        <r>    10.8073     0.0000     0.0234     0.0234     0.0234     0.0000     0.0000     0.0000     0.0000     0.0000 </r>
        <r>    10.9229     0.0012     0.0079     0.0079     0.0079     0.0000     0.0000     0.0000     0.0000     0.0000 </r>
        <r>    11.0385     0.0080     0.0231     0.0231     0.0231     0.0000     0.0000     0.0000     0.0000     0.0000 </r>
        <r>    11.1541     0.0060     0.0172     0.0172     0.0172     0.0000     0.0000     0.0000     0.0000     0.0000 </r>
        <r>    11.2697     0.0006     0.0015     0.0015     0.0015     0.0000     0.0000     0.0000     0.0000     0.0000 </r>
        <r>    11.3853     0.0073     0.0032     0.0032     0.0032     0.0000     0.0000     0.0000     0.0000     0.0000 </r>
        <r>    11.5009     0.0446     0.0197     0.0197     0.0197     0.0000     0.0000     0.0000     0.0000     0.0000 </r>
        <r>    11.6165     0.0312     0.0138     0.0138     0.0138     0.0000     0.0000     0.0000     0.0000     0.0000 </r>
        <r>    11.7321     0.0041     0.0045     0.0045     0.0045     0.0000     0.0000     0.0000     0.0000     0.0000 </r>
        <r>    11.8477     0.0261     0.0340     0.0340     0.0340     0.0000     0.0000     0.0000     0.0000     0.0000 </r>
        <r>    11.9633     0.0487     0.0435     0.0435     0.0435     0.0000     0.0000     0.0000     0.0000     0.0000 </r>
        <r>    12.0789     0.0114     0.0079     0.0079     0.0079     0.0000     0.0000     0.0000     0.0000     0.0000 </r>
        <r>    12.1945     0.0067     0.0083     0.0083     0.0083     0.0000     0.0000     0.0000     0.0000     0.0000 </r>
        <r>    12.3101     0.0189     0.0240     0.0240     0.0240     0.0000     0.0000     0.0000     0.0000     0.0000 </r>
        <r>    12.4257     0.0065     0.0100     0.0100     0.0100     0.0000     0.0000     0.0000     0.0000     0.0000 </r>
        <r>    12.5413     0.0013     0.0306     0.0306     0.0306     0.0000     0.0000     0.0000     0.0000     0.0000 </r>
        <r>    12.6569     0.0024     0.0551     0.0551     0.0551     0.0000     0.0000     0.0000     0.0000     0.0000 </r>
        <r>    12.7725     0.0006     0.0129     0.0129     0.0129     0.0000     0.0000     0.0000     0.0000     0.0000 </r>
        <r>    12.8881     0.0000     0.0403     0.0403     0.0403     0.0000     0.0000     0.0000     0.0000     0.0000 </r>
        <r>    13.0037     0.0001     0.2406     0.2406     0.2406     0.0000     0.0000     0.0000     0.0000     0.0000 </r>
        <r>    13.1192     0.0042     0.2774     0.2774     0.2774     0.0000     0.0000     0.0000     0.0000     0.0000 </r>
        <r>    13.2348     0.0314     0.1459     0.1459     0.1459     0.0000     0.0000     0.0000     0.0000     0.0000 </r>
        <r>    13.3504     0.0268     0.1214     0.1214     0.1214     0.0000     0.0000     0.0000     0.0000     0.0000 </r>
        <r>    13.4660     0.0025     0.1314     0.1314     0.1314     0.0000     0.0000     0.0000     0.0000     0.0000 </r>
        <r>    13.5816     0.0000     0.0633     0.0633     0.0633     0.0000     0.0000     0.0000     0.0000     0.0000 </r>
        <r>    13.6972     0.0000     0.0427     0.0427     0.0427     0.0000     0.0000     0.0000     0.0000     0.0000 </r>
        <r>    13.8128     0.0000     0.0540     0.0540     0.0540     0.0000     0.0000     0.0000     0.0000     0.0000 </r>
        <r>    13.9284     0.0000     0.1117     0.1117     0.1117     0.0000     0.0000     0.0000     0.0000     0.0000 </r>
        <r>    14.0440     0.0000     0.1220     0.1220     0.1220     0.0000     0.0000     0.0000     0.0000     0.0000 </r>
        <r>    14.1596     0.0000     0.0425     0.0425     0.0425     0.0000     0.0000     0.0000     0.0000     0.0000 </r>
        <r>    14.2752     0.0028     0.0040     0.0040     0.0040     0.0000     0.0000     0.0000     0.0000     0.0000 </r>
        <r>    14.3908     0.0308     0.0206     0.0206     0.0206     0.0000     0.0000     0.0000     0.0000     0.0000 </r>
        <r>    14.5064     0.0441     0.0462     0.0462     0.0462     0.0000     0.0000     0.0000     0.0000     0.0000 </r>
        <r>    14.6220     0.0185     0.1064     0.1064     0.1064     0.0000     0.0000     0.0000     0.0000     0.0000 </r>
        <r>    14.7376     0.0036     0.0972     0.0972     0.0972     0.0000     0.0000     0.0000     0.0000     0.0000 </r>
        <r>    14.8532     0.0003     0.0481     0.0481     0.0481     0.0000     0.0000     0.0000     0.0000     0.0000 </r>
        <r>    14.9688     0.0038     0.0193     0.0193     0.0193     0.0000     0.0000     0.0000     0.0000     0.0000 </r>
        <r>    15.0844     0.0204     0.0192     0.0192     0.0192     0.0000     0.0000     0.0000     0.0000     0.0000 </r>
        <r>    15.2000     0.0298     0.0316     0.0316     0.0316     0.0000     0.0000     0.0000     0.0000     0.0000 </r>
        <r>    15.3156     0.0211     0.0096     0.0096     0.0096     0.0000     0.0000     0.0000     0.0000     0.0000 </r>
        <r>    15.4312     0.0179     0.0071     0.0071     0.0071     0.0000     0.0000     0.0000     0.0000     0.0000 </r>
        <r>    15.5468     0.0246     0.0529     0.0529     0.0529     0.0000     0.0000     0.0000     0.0000     0.0000 </r>
        <r>    15.6624     0.0265     0.0633     0.0633     0.0633     0.0000     0.0000     0.0000     0.0000     0.0000 </r>
        <r>    15.7780     0.0323     0.0254     0.0254     0.0254     0.0000     0.0000     0.0000     0.0000     0.0000 </r>
        <r>    15.8936     0.0298     0.0383     0.0383     0.0383     0.0000     0.0000     0.0000     0.0000     0.0000 </r>
        <r>    16.0092     0.0308     0.0101     0.0101     0.0101     0.0000     0.0000     0.0000     0.0000     0.0000 </r>
        <r>    16.1247     0.0301     0.0003     0.0003     0.0003     0.0000     0.0000     0.0000     0.0000     0.0000 </r>
        <r>    16.2403     0.0272     0.0000     0.0000     0.0000     0.0000     0.0000     0.0000     0.0000     0.0000 </r>
        <r>    16.3559     0.0300     0.0002     0.0002     0.0002     0.0000     0.0000     0.0000     0.0000     0.0000 </r>
        <r>    16.4715     0.0580     0.0004     0.0004     0.0004     0.0000     0.0000     0.0000     0.0000     0.0000 </r>
        <r>    16.5871     0.2106     0.0137     0.0137     0.0137     0.0000     0.0000     0.0000     0.0000     0.0000 </r>
        <r>    16.7027     0.2687     0.0906     0.0906     0.0906     0.0000     0.0000     0.0000     0.0000     0.0000 </r>
        <r>    16.8183     0.1359     0.1023     0.1023     0.1023     0.0000     0.0000     0.0000     0.0000     0.0000 </r>
        <r>    16.9339     0.0388     0.0709     0.0709     0.0709     0.0000     0.0000     0.0000     0.0000     0.0000 </r>
        <r>    17.0495     0.0754     0.0610     0.0610     0.0610     0.0000     0.0000     0.0000     0.0000     0.0000 </r>
        <r>    17.1651     0.0889     0.0620     0.0620     0.0620     0.0000     0.0000     0.0000     0.0000     0.0000 </r>
        <r>    17.2807     0.0440     0.0249     0.0249     0.0249     0.0000     0.0000     0.0000     0.0000     0.0000 </r>
        <r>    17.3963     0.0084     0.0019     0.0019     0.0019     0.0000     0.0000     0.0000     0.0000     0.0000 </r>
        <r>    17.5119     0.0407     0.0025     0.0025     0.0025     0.0000     0.0000     0.0000     0.0000     0.0000 </r>
        <r>    17.6275     0.0701     0.0040     0.0040     0.0040     0.0000     0.0000     0.0000     0.0000     0.0000 </r>
        <r>    17.7431     0.0279     0.0023     0.0023     0.0023     0.0000     0.0000     0.0000     0.0000     0.0000 </r>
        <r>    17.8587     0.0320     0.0114     0.0114     0.0114     0.0000     0.0000     0.0000     0.0000     0.0000 </r>
        <r>    17.9743     0.0320     0.0520     0.0520     0.0520     0.0000     0.0000     0.0000     0.0000     0.0000 </r>
        <r>    18.0899     0.0037     0.1163     0.1163     0.1163     0.0000     0.0000     0.0000     0.0000     0.0000 </r>
        <r>    18.2055     0.0001     0.3310     0.3310     0.3310     0.0000     0.0000     0.0000     0.0000     0.0000 </r>
        <r>    18.3211     0.0028     0.3111     0.3111     0.3111     0.0000     0.0000     0.0000     0.0000     0.0000 </r>
        <r>    18.4367     0.0432     0.1825     0.1825     0.1825     0.0000     0.0000     0.0000     0.0000     0.0000 </r>
        <r>    18.5523     0.0804     0.1000     0.1000     0.1000     0.0000     0.0000     0.0000     0.0000     0.0000 </r>
        <r>    18.6679     0.0477     0.0770     0.0770     0.0770     0.0000     0.0000     0.0000     0.0000     0.0000 </r>
        <r>    18.7835     0.0393     0.0810     0.0810     0.0810     0.0000     0.0000     0.0000     0.0000     0.0000 </r>
        <r>    18.8991     0.0133     0.0150     0.0150     0.0150     0.0000     0.0000     0.0000     0.0000     0.0000 </r>
        <r>    19.0147     0.0009     0.0290     0.0290     0.0290     0.0000     0.0000     0.0000     0.0000     0.0000 </r>
        <r>    19.1302     0.0041     0.1482     0.1482     0.1482     0.0000     0.0000     0.0000     0.0000     0.0000 </r>
        <r>    19.2458     0.0070     0.1225     0.1225     0.1225     0.0000     0.0000     0.0000     0.0000     0.0000 </r>
        <r>    19.3614     0.0014     0.0237     0.0237     0.0237     0.0000     0.0000     0.0000     0.0000     0.0000 </r>
        <r>    19.4770     0.0004     0.0652     0.0652     0.0652     0.0000     0.0000     0.0000     0.0000     0.0000 </r>
        <r>    19.5926     0.0109     0.1329     0.1329     0.1329     0.0000     0.0000     0.0000     0.0000     0.0000 </r>
        <r>    19.7082     0.0422     0.1919     0.1919     0.1919     0.0000     0.0000     0.0000     0.0000     0.0000 </r>
        <r>    19.8238     0.0390     0.0672     0.0672     0.0672     0.0000     0.0000     0.0000     0.0000     0.0000 </r>
        <r>    19.9394     0.0297     0.0082     0.0082     0.0082     0.0000     0.0000     0.0000     0.0000     0.0000 </r>
        <r>    20.0550     0.0179     0.0050     0.0050     0.0050     0.0000     0.0000     0.0000     0.0000     0.0000 </r>
        <r>    20.1706     0.0020     0.0190     0.0190     0.0190     0.0000     0.0000     0.0000     0.0000     0.0000 </r>
        <r>    20.2862     0.0004     0.0891     0.0891     0.0891     0.0000     0.0000     0.0000     0.0000     0.0000 </r>
        <r>    20.4018     0.0045     0.0855     0.0855     0.0855     0.0000     0.0000     0.0000     0.0000     0.0000 </r>
        <r>    20.5174     0.0057     0.0869     0.0869     0.0869     0.0000     0.0000     0.0000     0.0000     0.0000 </r>
[...]
       </set>
       <set comment="band 2">
        <r>  0.2017  0.0000  0.2251  0.0000  0.0000  0.0000  0.0000  0.0000  0.0000 </r>
       </set>
       <set comment="band 3">
        <r>  0.0000  0.2337  0.0000  0.2325  0.0000  0.0000  0.0000  0.0000  0.0000 </r>
       </set>
       <set comment="band 4">
        <r>  0.0000  0.2325  0.0000  0.2337  0.0000  0.0000  0.0000  0.0000  0.0000 </r>
       </set>
       <set comment="band 5">
        <r>  0.0000  0.0000  0.0000  0.0000  0.0000  0.0000  0.0000  0.0000  0.0000 </r>
       </set>
       <set comment="band 6">
        <r>  0.2483  0.0000  0.0195  0.0000  0.0000  0.0000  0.0000  0.0000  0.0000 </r>
       </set>
      </set>
      <set comment="kpoint 19">
       <set comment="band 1">
        <r>  0.2146  0.0000  0.1787  0.0000  0.0000  0.0000  0.0000  0.0000  0.0000 </r>
       </set>
       <set comment="band 2">
        <r>  0.2442  0.0000  0.1760  0.0000  0.0000  0.0000  0.0000  0.0000  0.0000 </r>
       </set>
       <set comment="band 3">
        <r>  0.0000  0.2363  0.0000  0.2351  0.0000  0.0000  0.0000  0.0000  0.0000 </r>
       </set>
       <set comment="band 4">
        <r>  0.0000  0.2351  0.0000  0.2363  0.0000  0.0000  0.0000  0.0000  0.0000 </r>
       </set>
       <set comment="band 5">
        <r>  0.0000  0.0000  0.0000  0.0000  0.0000  0.0000  0.0000  0.0000  0.0000 </r>
       </set>
       <set comment="band 6">
        <r>  0.2713  0.0000  0.0052  0.0000  0.0000  0.0000  0.0000  0.0000  0.0000 </r>
       </set>
      </set>
      <set comment="kpoint 20">
       <set comment="band 1">
        <r>  0.0000  0.0000  0.3542  0.0000  0.0000  0.0000  0.0000  0.0000  0.0000 </r>
       </set>
       <set comment="band 2">
        <r>  0.4579  0.0000  0.0000  0.0000  0.0000  0.0000  0.0000  0.0000  0.0000 </r>
       </set>
       <set comment="band 3">
        <r>  0.0000  0.2372  0.0000  0.2360  0.0000  0.0000  0.0000  0.0000  0.0000 </r>
       </set>
       <set comment="band 4">
        <r>  0.0000  0.2360  0.0000  0.2373  0.0000  0.0000  0.0000  0.0000  0.0000 </r>
       </set>
       <set comment="band 5">
        <r>  0.0000  0.0000  0.0000  0.0000  0.0000  0.0000  0.0000  0.0000  0.0000 </r>
       </set>
       <set comment="band 6">
        <r>  0.2780  0.0000  0.0000  0.0000  0.0000  0.0000  0.0000  0.0000  0.0000 </r>
       </set>
      </set>
      <set comment="kpoint 21">
       <set comment="band 1">
        <r>  0.0000  0.0000  0.3542  0.0000  0.0000  0.0000  0.0000  0.0000  0.0000 </r>
       </set>
       <set comment="band 2">
        <r>  0.4579  0.0000  0.0000  0.0000  0.0000  0.0000  0.0000  0.0000  0.0000 </r>
       </set>
       <set comment="band 3">
        <r>  0.0000  0.2372  0.0000  0.2360  0.0000  0.0000  0.0000  0.0000  0.0000 </r>
       </set>
       <set comment="band 4">
        <r>  0.0000  0.2360  0.0000  0.2373  0.0000  0.0000  0.0000  0.0000  0.0000 </r>
       </set>
       <set comment="band 5">
        <r>  0.0000  0.0000  0.0000  0.0000  0.0000  0.0000  0.0000  0.0000  0.0000 </r>
       </set>
       <set comment="band 6">
        <r>  0.2780  0.0000  0.0000  0.0000  0.0000  0.0000  0.0000  0.0000  0.0000 </r>
       </set>
      </set>
      <set comment="kpoint 22">
       <set comment="band 1">
        <r>  0.0000  0.0000  0.3540  0.0000  0.0000  0.0000  0.0000  0.0000  0.0000 </r>
       </set>
       <set comment="band 2">
        <r>  0.4580  0.0002  0.0000  0.0002  0.0000  0.0000  0.0000  0.0000  0.0000 </r>
       </set>
       <set comment="band 3">
        <r>  0.0096  0.1998  0.0000  0.1998  0.0000  0.0000  0.0000  0.0000  0.0000 </r>
       </set>
       <set comment="band 4">
        <r>  0.0000  0.2366  0.0000  0.2366  0.0000  0.0000  0.0000  0.0000  0.0000 </r>
       </set>
       <set comment="band 5">
        <r>  0.0050  0.0262  0.0000  0.0262  0.0000  0.0000  0.0000  0.0000  0.0000 </r>
       </set>
       <set comment="band 6">
        <r>  0.2628  0.0107  0.0000  0.0107  0.0000  0.0000  0.0000  0.0000  0.0000 </r>
       </set>
      </set>
      <set comment="kpoint 23">
       <set comment="band 1">
        <r>  0.0000  0.0000  0.3535  0.0000  0.0000  0.0000  0.0000  0.0000  0.0000 </r>
       </set>
       <set comment="band 2">
        <r>  0.4584  0.0008  0.0000  0.0008  0.0000  0.0000  0.0000  0.0000  0.0000 </r>
       </set>
       <set comment="band 3">
        <r>  0.0240  0.1712  0.0000  0.1712  0.0000  0.0000  0.0000  0.0000  0.0000 </r>
       </set>
       <set comment="band 4">
        <r>  0.0000  0.2363  0.0000  0.2363  0.0000  0.0000  0.0000  0.0000  0.0000 </r>
       </set>
       <set comment="band 5">
        <r>  0.0348  0.0276  0.0000  0.0276  0.0000  0.0000  0.0000  0.0000  0.0000 </r>
       </set>
       <set comment="band 6">
        <r>  0.2166  0.0380  0.0000  0.0380  0.0000  0.0000  0.0000  0.0000  0.0000 </r>
       </set>
      </set>
      <set comment="kpoint 24">
       <set comment="band 1">
        <r>  0.0000  0.0000  0.3526  0.0000  0.0000  0.0000  0.0000  0.0000  0.0000 </r>
       </set>
       <set comment="band 2">
        <r>  0.4594  0.0016  0.0000  0.0016  0.0000  0.0000  0.0000  0.0000  0.0000 </r>
       </set>
       <set comment="band 3">
        <r>  0.0363  0.1567  0.0000  0.1567  0.0000  0.0000  0.0000  0.0000  0.0000 </r>
       </set>
       <set comment="band 4">
        <r>  0.0000  0.2359  0.0000  0.2359  0.0000  0.0000  0.0000  0.0000  0.0000 </r>
       </set>
       <set comment="band 5">
        <r>  0.0735  0.0152  0.0000  0.0152  0.0000  0.0000  0.0000  0.0000  0.0000 </r>
       </set>
       <set comment="band 6">
        <r>  0.1620  0.0651  0.0000  0.0651  0.0000  0.0000  0.0000  0.0000  0.0000 </r>
       </set>
      </set>
      <set comment="kpoint 25">
       <set comment="band 1">
        <r>  0.0000  0.0000  0.3513  0.0000  0.0000  0.0000  0.0000  0.0000  0.0000 </r>
       </set>
       <set comment="band 2">
        <r>  0.4615  0.0027  0.0000  0.0027  0.0000  0.0000  0.0000  0.0000  0.0000 </r>
       </set>
       <set comment="band 3">
        <r>  0.0452  0.1480  0.0000  0.1480  0.0000  0.0000  0.0000  0.0000  0.0000 </r>
       </set>
       <set comment="band 4">
        <r>  0.0000  0.2354  0.0000  0.2354  0.0000  0.0000  0.0000  0.0000  0.0000 </r>
       </set>
       <set comment="band 5">
        <r>  0.1005  0.0063  0.0000  0.0063  0.0000  0.0000  0.0000  0.0000  0.0000 </r>
       </set>
       <set comment="band 6">
        <r>  0.1200  0.0832  0.0000  0.0832  0.0000  0.0000  0.0000  0.0000  0.0000 </r>
       </set>
      </set>
      <set comment="kpoint 26">
       <set comment="band 1">
        <r>  0.0000  0.0000  0.3497  0.0000  0.0000  0.0000  0.0000  0.0000  0.0000 </r>
       </set>
       <set comment="band 2">
        <r>  0.4666  0.0035  0.0000  0.0035  0.0000  0.0000  0.0000  0.0000  0.0000 </r>
       </set>
       <set comment="band 3">
        <r>  0.0496  0.1424  0.0000  0.1424  0.0000  0.0000  0.0000  0.0000  0.0000 </r>
       </set>
       <set comment="band 4">
        <r>  0.0000  0.2347  0.0000  0.2347  0.0000  0.0000  0.0000  0.0000  0.0000 </r>
       </set>
       <set comment="band 5">
        <r>  0.1159  0.0018  0.0000  0.0018  0.0000  0.0000  0.0000  0.0000  0.0000 </r>
       </set>
       <set comment="band 6">
        <r>  0.0904  0.0944  0.0000  0.0944  0.0000  0.0000  0.0000  0.0000  0.0000 </r>
       </set>
      </set>
      <set comment="kpoint 27">
       <set comment="band 1">
        <r>  0.0000  0.0000  0.3478  0.0000  0.0000  0.0000  0.0000  0.0000  0.0000 </r>
       </set>
       <set comment="band 2">
        <r>  0.4777  0.0036  0.0000  0.0036  0.0000  0.0000  0.0000  0.0000  0.0000 </r>
       </set>
       <set comment="band 3">
        <r>  0.0465  0.1387  0.0000  0.1387  0.0000  0.0000  0.0000  0.0000  0.0000 </r>
       </set>
       <set comment="band 4">
        <r>  0.0000  0.2341  0.0000  0.2341  0.0000  0.0000  0.0000  0.0000  0.0000 </r>
       </set>
       <set comment="band 5">
        <r>  0.1239  0.0002  0.0000  0.0002  0.0000  0.0000  0.0000  0.0000  0.0000 </r>
       </set>
       <set comment="band 6">
        <r>  0.0683  0.1020  0.0000  0.1020  0.0000  0.0000  0.0000  0.0000  0.0000 </r>
       </set>
      </set>
      <set comment="kpoint 28">
       <set comment="band 1">
        <r>  0.0000  0.0000  0.3459  0.0000  0.0000  0.0000  0.0000  0.0000  0.0000 </r>
       </set>
       <set comment="band 2">
        <r>  0.5009  0.0019  0.0000  0.0019  0.0000  0.0000  0.0000  0.0000  0.0000 </r>
       </set>
       <set comment="band 3">
        <r>  0.0300  0.1383  0.0000  0.1383  0.0000  0.0000  0.0000  0.0000  0.0000 </r>
       </set>
       <set comment="band 4">
        <r>  0.0000  0.2332  0.0000  0.2332  0.0000  0.0000  0.0000  0.0000  0.0000 </r>
       </set>
       <set comment="band 5">
        <r>  0.1271  0.0002  0.0000  0.0002  0.0000  0.0000  0.0000  0.0000  0.0000 </r>
       </set>
       <set comment="band 6">
        <r>  0.0519  0.1080  0.0000  0.1081  0.0000  0.0000  0.0000  0.0000  0.0000 </r>
       </set>
      </set>
      <set comment="kpoint 29">
       <set comment="band 1">
        <r>  0.0000  0.0000  0.3434  0.0000  0.0000  0.0000  0.0000  0.0000  0.0000 </r>
       </set>
       <set comment="band 2">
        <r>  0.5359  0.0007  0.0000  0.0007  0.0000  0.0000  0.0000  0.0000  0.0000 </r>
       </set>
       <set comment="band 3">
        <r>  0.0004  0.1387  0.0000  0.1387  0.0000  0.0000  0.0000  0.0000  0.0000 </r>
       </set>
       <set comment="band 4">
        <r>  0.0000  0.2323  0.0000  0.2323  0.0000  0.0000  0.0000  0.0000  0.0000 </r>
       </set>
       <set comment="band 5">
        <r>  0.1280  0.0012  0.0000  0.0012  0.0000  0.0000  0.0000  0.0000  0.0000 </r>
       </set>
       <set comment="band 6">
        <r>  0.0380  0.1112  0.0000  0.1112  0.0000  0.0000  0.0000  0.0000  0.0000 </r>
       </set>
      </set>
      <set comment="kpoint 30">
       <set comment="band 1">
        <r>  0.0000  0.0000  0.3409  0.0000  0.0000  0.0000  0.0000  0.0000  0.0000 </r>
       </set>
       <set comment="band 2">
        <r>  0.4448  0.0331  0.0000  0.0331  0.0000  0.0000  0.0000  0.0000  0.0000 </r>
       </set>
       <set comment="band 3">
        <r>  0.0950  0.1061  0.0000  0.1061  0.0000  0.0000  0.0000  0.0000  0.0000 </r>
       </set>
       <set comment="band 4">
        <r>  0.0000  0.2315  0.0000  0.2315  0.0000  0.0000  0.0000  0.0000  0.0000 </r>
       </set>
       <set comment="band 5">
        <r>  0.1274  0.0031  0.0000  0.0031  0.0000  0.0000  0.0000  0.0000  0.0000 </r>
       </set>
       <set comment="band 6">
        <r>  0.0264  0.1130  0.0000  0.1130  0.0000  0.0000  0.0000  0.0000  0.0000 </r>
       </set>
      </set>
      <set comment="kpoint 31">
       <set comment="band 1">
        <r>  0.0000  0.0000  0.0000  0.3409  0.0000  0.0000  0.0000  0.0000  0.0000 </r>
       </set>
       <set comment="band 2">
        <r>  0.4448  0.0331  0.0331  0.0000  0.0000  0.0000  0.0000  0.0000  0.0000 </r>
       </set>
       <set comment="band 3">
        <r>  0.0950  0.1061  0.1061  0.0000  0.0000  0.0000  0.0000  0.0000  0.0000 </r>
       </set>
       <set comment="band 4">
        <r>  0.0000  0.2315  0.2315  0.0000  0.0000  0.0000  0.0000  0.0000  0.0000 </r>
       </set>
       <set comment="band 5">
        <r>  0.1274  0.0031  0.0031  0.0000  0.0000  0.0000  0.0000  0.0000  0.0000 </r>
       </set>
       <set comment="band 6">
        <r>  0.0264  0.1130  0.1130  0.0000  0.0000  0.0000  0.0000  0.0000  0.0000 </r>
       </set>
      </set>
      <set comment="kpoint 32">
       <set comment="band 1">
        <r>  0.2662  0.0730  0.0730  0.0000  0.0000  0.0000  0.0000  0.0000  0.0000 </r>
       </set>
       <set comment="band 2">
        <r>  0.0000  0.0000  0.0000  0.3316  0.0000  0.0000  0.0000  0.0000  0.0000 </r>
       </set>
       <set comment="band 3">
        <r>  0.2801  0.0686  0.0686  0.0000  0.0000  0.0000  0.0000  0.0000  0.0000 </r>
       </set>
       <set comment="band 4">
        <r>  0.0000  0.2292  0.2292  0.0000  0.0000  0.0000  0.0000  0.0000  0.0000 </r>
       </set>
       <set comment="band 5">
        <r>  0.1174  0.0113  0.0113  0.0000  0.0000  0.0000  0.0000  0.0000  0.0000 </r>
       </set>
       <set comment="band 6">
        <r>  0.0027  0.1177  0.1183  0.0000  0.0000  0.0000  0.0000  0.0000  0.0000 </r>
       </set>
      </set>
      <set comment="kpoint 33">
       <set comment="band 1">
        <r>  0.2714  0.0644  0.0644  0.0000  0.0000  0.0000  0.0000  0.0000  0.0000 </r>
       </set>
       <set comment="band 2">
        <r>  0.0000  0.0000  0.0000  0.3203  0.0000  0.0000  0.0000  0.0000  0.0000 </r>
       </set>
       <set comment="band 3">
        <r>  0.2726  0.0840  0.0840  0.0000  0.0000  0.0000  0.0000  0.0000  0.0000 </r>
       </set>
       <set comment="band 4">
        <r>  0.0000  0.2284  0.2284  0.0000  0.0000  0.0000  0.0000  0.0000  0.0000 </r>
       </set>
       <set comment="band 5">
        <r>  0.1019  0.0222  0.0222  0.0000  0.0000  0.0000  0.0000  0.0000  0.0000 </r>
       </set>
       <set comment="band 6">
        <r>  0.0000  0.1099  0.1096  0.0000  0.0000  0.0000  0.0000  0.0000  0.0000 </r>
       </set>
      </set>
      <set comment="kpoint 34">
       <set comment="band 1">
        <r>  0.2931  0.0512  0.0512  0.0000  0.0000  0.0000  0.0000  0.0000  0.0000 </r>
       </set>
       <set comment="band 2">
        <r>  0.0000  0.0000  0.0000  0.3095  0.0000  0.0000  0.0000  0.0000  0.0000 </r>
       </set>
       <set comment="band 3">
        <r>  0.2400  0.1065  0.1065  0.0000  0.0000  0.0000  0.0000  0.0000  0.0000 </r>
       </set>
       <set comment="band 4">
        <r>  0.0000  0.2331  0.2331  0.0000  0.0000  0.0000  0.0000  0.0000  0.0000 </r>
       </set>
       <set comment="band 5">
        <r>  0.0836  0.0335  0.0335  0.0000  0.0000  0.0000  0.0000  0.0000  0.0000 </r>
       </set>
       <set comment="band 6">
        <r>  0.0000  0.1143  0.1140  0.0000  0.0000  0.0000  0.0000  0.0000  0.0000 </r>
       </set>
      </set>
      <set comment="kpoint 35">
       <set comment="band 1">
        <r>  0.3170  0.0377  0.0377  0.0000  0.0000  0.0000  0.0000  0.0000  0.0000 </r>
       </set>
       <set comment="band 2">
        <r>  0.0000  0.0000  0.0000  0.2990  0.0000  0.0000  0.0000  0.0000  0.0000 </r>
       </set>
       <set comment="band 3">
        <r>  0.1980  0.1312  0.1312  0.0000  0.0000  0.0000  0.0000  0.0000  0.0000 </r>
       </set>
       <set comment="band 4">
        <r>  0.0000  0.2507  0.2507  0.0000  0.0000  0.0000  0.0000  0.0000  0.0000 </r>
       </set>
       <set comment="band 5">
        <r>  0.0643  0.0450  0.0450  0.0000  0.0000  0.0000  0.0000  0.0000  0.0000 </r>
       </set>
       <set comment="band 6">
        <r>  0.0000  0.1017  0.1017  0.0000  0.0000  0.0000  0.0000  0.0000  0.0000 </r>
       </set>
      </set>
      <set comment="kpoint 36">
       <set comment="band 1">
        <r>  0.3389  0.0251  0.0251  0.0000  0.0000  0.0000  0.0000  0.0000  0.0000 </r>
       </set>
       <set comment="band 2">
        <r>  0.0000  0.0000  0.0000  0.2916  0.0000  0.0000  0.0000  0.0000  0.0000 </r>
       </set>
       <set comment="band 3">
        <r>  0.1503  0.1565  0.1565  0.0000  0.0000  0.0000  0.0000  0.0000  0.0000 </r>
       </set>
       <set comment="band 4">
        <r>  0.0000  0.2958  0.2958  0.0000  0.0000  0.0000  0.0000  0.0000  0.0000 </r>
       </set>
       <set comment="band 5">
        <r>  0.0502  0.0558  0.0565  0.0000  0.0000  0.0000  0.0000  0.0000  0.0000 </r>
       </set>
       <set comment="band 6">
        <r>  0.0000  0.0001  0.0001  0.0000  0.0000  0.0000  0.0000  0.0000  0.0000 </r>
       </set>
      </set>
      <set comment="kpoint 37">
       <set comment="band 1">
        <r>  0.3580  0.0147  0.0147  0.0000  0.0000  0.0000  0.0000  0.0000  0.0000 </r>
       </set>
       <set comment="band 2">
        <r>  0.0000  0.0000  0.0000  0.2911  0.0000  0.0000  0.0000  0.0000  0.0000 </r>
       </set>
       <set comment="band 3">
        <r>  0.1018  0.1803  0.1803  0.0000  0.0000  0.0000  0.0000  0.0000  0.0000 </r>
       </set>
       <set comment="band 4">
        <r>  0.0000  0.3458  0.3458  0.0000  0.0000  0.0000  0.0000  0.0000  0.0000 </r>
       </set>
       <set comment="band 5">
        <r>  0.0000  0.0000  0.0000  0.0000  0.0000  0.0000  0.0000  0.0000  0.0000 </r>
       </set>
       <set comment="band 6">
        <r>  0.0000  0.0000  0.0000  0.3477  0.0000  0.0000  0.0000  0.0000  0.0000 </r>
       </set>
      </set>
      <set comment="kpoint 38">
       <set comment="band 1">
        <r>  0.3727  0.0067  0.0067  0.0000  0.0000  0.0000  0.0000  0.0000  0.0000 </r>
       </set>
       <set comment="band 2">
        <r>  0.0000  0.0000  0.0000  0.3116  0.0000  0.0000  0.0000  0.0000  0.0000 </r>
       </set>
       <set comment="band 3">
        <r>  0.0562  0.2034  0.2034  0.0000  0.0000  0.0000  0.0000  0.0000  0.0000 </r>
       </set>
       <set comment="band 4">
        <r>  0.0000  0.3520  0.3520  0.0000  0.0000  0.0000  0.0000  0.0000  0.0000 </r>
       </set>
       <set comment="band 5">
        <r>  0.0000  0.0000  0.0000  0.0000  0.0000  0.0000  0.0000  0.0000  0.0000 </r>
       </set>
       <set comment="band 6">
        <r>  0.0000  0.0000  0.0000  0.3441  0.0000  0.0000  0.0000  0.0000  0.0000 </r>
       </set>
      </set>
      <set comment="kpoint 39">
       <set comment="band 1">
        <r>  0.3816  0.0017  0.0017  0.0000  0.0000  0.0000  0.0000  0.0000  0.0000 </r>
       </set>
       <set comment="band 2">
        <r>  0.0000  0.0000  0.0000  0.3834  0.0000  0.0000  0.0000  0.0000  0.0000 </r>
       </set>
       <set comment="band 3">
        <r>  0.0184  0.2285  0.2285  0.0000  0.0000  0.0000  0.0000  0.0000  0.0000 </r>
       </set>
       <set comment="band 4">
        <r>  0.0000  0.3430  0.3430  0.0000  0.0000  0.0000  0.0000  0.0000  0.0000 </r>
       </set>
       <set comment="band 5">
        <r>  0.0000  0.0000  0.0000  0.0000  0.0000  0.0000  0.0000  0.0000  0.0000 </r>
       </set>
       <set comment="band 6">
        <r>  0.0000  0.0000  0.0000  0.2913  0.0000  0.0000  0.0000  0.0000  0.0000 </r>
       </set>
      </set>
      <set comment="kpoint 40">
       <set comment="band 1">
        <r>  0.3839  0.0000  0.0000  0.0000  0.0000  0.0000  0.0000  0.0000  0.0000 </r>
       </set>
       <set comment="band 2">
        <r>  0.0000  0.2264  0.2254  0.2256  0.0000  0.0000  0.0000  0.0000  0.0000 </r>
       </set>
       <set comment="band 3">
        <r>  0.0000  0.4504  0.1146  0.1124  0.0000  0.0000  0.0000  0.0000  0.0000 </r>
       </set>
       <set comment="band 4">
        <r>  0.0000  0.0006  0.3374  0.3395  0.0000  0.0000  0.0000  0.0000  0.0000 </r>
       </set>
       <set comment="band 5">
        <r>  0.0000  0.0000  0.0000  0.0000  0.0000  0.0000  0.0000  0.0000  0.0000 </r>
       </set>
       <set comment="band 6">
        <r>  0.0000  0.0000  0.0000  0.0000  0.0000  0.0000  0.0000  0.0000  0.0000 </r>
       </set>
      </set>
     </set>
    </set>
   </array>
  </projected>
 </calculation>
 <structure name="finalpos" >
  <crystal>
   <varray name="basis" >
    <v>       1.95000000       1.95000000       0.00000000 </v>
    <v>       0.00000000       1.95000000       1.95000000 </v>
    <v>       1.95000000       0.00000000       1.95000000 </v>
   </varray>
   <i name="volume">     14.82975000 </i>
   <varray name="rec_basis" >
    <v>       0.25641026       0.25641026      -0.25641026 </v>
    <v>      -0.25641026       0.25641026       0.25641026 </v>
    <v>       0.25641026      -0.25641026       0.25641026 </v>
   </varray>
  </crystal>
  <varray name="positions" >
   <v>       0.00000000       0.00000000       0.00000000 </v>
  </varray>
 </structure>
</modeling>
